VARIABLES="X", "Y", "Z", "Maximum Refinment Level", "Temp_ID", "Thread", "test wave (corner node)[i=0]", "test wave (corner node)[i=1]", "test wave (corner node)[i=2]","test wave (center node)", "Local Time Step" , "log10(Local Particle Weight)" 
ZONE N=9261, E=8000, DATAPACKING=POINT, ZONETYPE=FEBRICK
-1.000000e+00  -3.000000e+00  -4.000000e+00  0  0 0  1.000000e+02 -2.000000e+01 1.000000e+01   0.000000e+00 1.000000e-02  1.000000e+00  
-8.000000e-01  -3.000000e+00  -4.000000e+00  0  64 0  1.000000e+02 -2.000000e+01 1.000000e+01   0.000000e+00 1.000000e-02  1.000000e+00  
-8.000000e-01  -2.750000e+00  -4.000000e+00  0  72 0  1.000000e+02 -2.000000e+01 1.000000e+01   0.000000e+00 1.000000e-02  1.000000e+00  
-1.000000e+00  -2.750000e+00  -4.000000e+00  0  8 0  1.000000e+02 -2.000000e+01 1.000000e+01   0.000000e+00 1.000000e-02  1.000000e+00  
-1.000000e+00  -3.000000e+00  -3.650000e+00  0  1 0  1.000000e+02 -2.000000e+01 1.000000e+01   0.000000e+00 1.000000e-02  1.000000e+00  
-8.000000e-01  -3.000000e+00  -3.650000e+00  0  65 0  1.000000e+02 -2.000000e+01 1.000000e+01   0.000000e+00 1.000000e-02  1.000000e+00  
-8.000000e-01  -2.750000e+00  -3.650000e+00  0  73 0  9.999942e+01 -1.999594e+01 1.000001e+01   0.000000e+00 1.000000e-02  1.000000e+00  
-1.000000e+00  -2.750000e+00  -3.650000e+00  0  9 0  1.000000e+02 -2.000000e+01 1.000000e+01   0.000000e+00 1.000000e-02  1.000000e+00  
-6.000000e-01  -3.000000e+00  -4.000000e+00  0  128 0  1.000000e+02 -2.000000e+01 1.000000e+01   0.000000e+00 1.000000e-02  1.000000e+00  
-6.000000e-01  -2.750000e+00  -4.000000e+00  0  136 0  1.000000e+02 -2.000000e+01 1.000000e+01   0.000000e+00 1.000000e-02  1.000000e+00  
-6.000000e-01  -3.000000e+00  -3.650000e+00  0  129 0  1.000000e+02 -2.000000e+01 1.000000e+01   0.000000e+00 1.000000e-02  1.000000e+00  
-6.000000e-01  -2.750000e+00  -3.650000e+00  0  137 0  9.999886e+01 -1.999221e+01 1.000001e+01   0.000000e+00 1.000000e-02  1.000000e+00  
-4.000000e-01  -3.000000e+00  -4.000000e+00  0  192 0  1.000000e+02 -2.000000e+01 1.000000e+01   0.000000e+00 1.000000e-02  1.000000e+00  
-4.000000e-01  -2.750000e+00  -4.000000e+00  0  200 0  1.000000e+02 -2.000000e+01 1.000000e+01   0.000000e+00 1.000000e-02  1.000000e+00  
-4.000000e-01  -3.000000e+00  -3.650000e+00  0  193 0  1.000000e+02 -2.000000e+01 1.000000e+01   0.000000e+00 1.000000e-02  1.000000e+00  
-4.000000e-01  -2.750000e+00  -3.650000e+00  0  201 0  9.999840e+01 -1.998914e+01 1.000001e+01   0.000000e+00 1.000000e-02  1.000000e+00  
-2.000000e-01  -3.000000e+00  -4.000000e+00  0  256 0  1.000000e+02 -2.000000e+01 1.000000e+01   0.000000e+00 1.000000e-02  1.000000e+00  
-2.000000e-01  -2.750000e+00  -4.000000e+00  0  264 0  1.000000e+02 -2.000000e+01 1.000000e+01   0.000000e+00 1.000000e-02  1.000000e+00  
-2.000000e-01  -3.000000e+00  -3.650000e+00  0  257 0  1.000000e+02 -2.000000e+01 1.000000e+01   0.000000e+00 1.000000e-02  1.000000e+00  
-2.000000e-01  -2.750000e+00  -3.650000e+00  0  265 0  9.999806e+01 -1.998693e+01 1.000001e+01   0.000000e+00 1.000000e-02  1.000000e+00  
0.000000e+00  -3.000000e+00  -4.000000e+00  0  320 0  1.000000e+02 -2.000000e+01 1.000000e+01   0.000000e+00 1.000000e-02  1.000000e+00  
0.000000e+00  -2.750000e+00  -4.000000e+00  0  328 0  1.000000e+02 -2.000000e+01 1.000000e+01   0.000000e+00 1.000000e-02  1.000000e+00  
0.000000e+00  -3.000000e+00  -3.650000e+00  0  321 0  1.000000e+02 -2.000000e+01 1.000000e+01   0.000000e+00 1.000000e-02  1.000000e+00  
0.000000e+00  -2.750000e+00  -3.650000e+00  0  329 0  9.999788e+01 -1.998573e+01 1.000001e+01   0.000000e+00 1.000000e-02  1.000000e+00  
-8.000000e-01  -2.500000e+00  -4.000000e+00  0  80 0  1.000000e+02 -2.000000e+01 1.000000e+01   0.000000e+00 1.000000e-02  1.000000e+00  
-1.000000e+00  -2.500000e+00  -4.000000e+00  0  16 0  1.000000e+02 -2.000000e+01 1.000000e+01   0.000000e+00 1.000000e-02  1.000000e+00  
-8.000000e-01  -2.500000e+00  -3.650000e+00  0  81 0  9.999869e+01 -1.999211e+01 1.000001e+01   0.000000e+00 1.000000e-02  1.000000e+00  
-1.000000e+00  -2.500000e+00  -3.650000e+00  0  17 0  1.000000e+02 -2.000000e+01 1.000000e+01   0.000000e+00 1.000000e-02  1.000000e+00  
-6.000000e-01  -2.500000e+00  -4.000000e+00  0  144 0  1.000000e+02 -2.000000e+01 1.000000e+01   0.000000e+00 1.000000e-02  1.000000e+00  
-6.000000e-01  -2.500000e+00  -3.650000e+00  0  145 0  9.999746e+01 -1.998489e+01 1.000001e+01   0.000000e+00 1.000000e-02  1.000000e+00  
-4.000000e-01  -2.500000e+00  -4.000000e+00  0  208 0  1.000000e+02 -2.000000e+01 1.000000e+01   0.000000e+00 1.000000e-02  1.000000e+00  
-4.000000e-01  -2.500000e+00  -3.650000e+00  0  209 0  9.999643e+01 -1.997891e+01 1.000001e+01   0.000000e+00 1.000000e-02  1.000000e+00  
-2.000000e-01  -2.500000e+00  -4.000000e+00  0  272 0  1.000000e+02 -2.000000e+01 1.000000e+01   0.000000e+00 1.000000e-02  1.000000e+00  
-2.000000e-01  -2.500000e+00  -3.650000e+00  0  273 0  9.999570e+01 -1.997464e+01 1.000001e+01   0.000000e+00 1.000000e-02  1.000000e+00  
0.000000e+00  -2.500000e+00  -4.000000e+00  0  336 0  1.000000e+02 -2.000000e+01 1.000000e+01   0.000000e+00 1.000000e-02  1.000000e+00  
0.000000e+00  -2.500000e+00  -3.650000e+00  0  337 0  9.999530e+01 -1.997230e+01 1.000002e+01   0.000000e+00 1.000000e-02  1.000000e+00  
-8.000000e-01  -2.250000e+00  -4.000000e+00  0  88 0  1.000000e+02 -2.000000e+01 1.000000e+01   0.000000e+00 1.000000e-02  1.000000e+00  
-1.000000e+00  -2.250000e+00  -4.000000e+00  0  24 0  1.000000e+02 -2.000000e+01 1.000000e+01   0.000000e+00 1.000000e-02  1.000000e+00  
-8.000000e-01  -2.250000e+00  -3.650000e+00  0  89 0  9.999771e+01 -1.998876e+01 1.000001e+01   0.000000e+00 1.000000e-02  1.000000e+00  
-1.000000e+00  -2.250000e+00  -3.650000e+00  0  25 0  1.000000e+02 -2.000000e+01 1.000000e+01   0.000000e+00 1.000000e-02  1.000000e+00  
-6.000000e-01  -2.250000e+00  -4.000000e+00  0  152 0  1.000000e+02 -2.000000e+01 1.000000e+01   0.000000e+00 1.000000e-02  1.000000e+00  
-6.000000e-01  -2.250000e+00  -3.650000e+00  0  153 0  9.999559e+01 -1.997847e+01 1.000001e+01   0.000000e+00 1.000000e-02  1.000000e+00  
-4.000000e-01  -2.250000e+00  -4.000000e+00  0  216 0  1.000000e+02 -2.000000e+01 1.000000e+01   0.000000e+00 1.000000e-02  1.000000e+00  
-4.000000e-01  -2.250000e+00  -3.650000e+00  0  217 0  9.999382e+01 -1.996997e+01 1.000002e+01   0.000000e+00 1.000000e-02  1.000000e+00  
-2.000000e-01  -2.250000e+00  -4.000000e+00  0  280 0  1.000000e+02 -2.000000e+01 1.000000e+01   0.000000e+00 1.000000e-02  1.000000e+00  
-2.000000e-01  -2.250000e+00  -3.650000e+00  0  281 0  9.999255e+01 -1.996388e+01 1.000002e+01   0.000000e+00 1.000000e-02  1.000000e+00  
0.000000e+00  -2.250000e+00  -4.000000e+00  0  344 0  1.000000e+02 -2.000000e+01 1.000000e+01   0.000000e+00 1.000000e-02  1.000000e+00  
0.000000e+00  -2.250000e+00  -3.650000e+00  0  345 0  9.999187e+01 -1.996055e+01 1.000002e+01   0.000000e+00 1.000000e-02  1.000000e+00  
-8.000000e-01  -2.000000e+00  -4.000000e+00  0  96 0  1.000000e+02 -2.000000e+01 1.000000e+01   0.000000e+00 1.000000e-02  1.000000e+00  
-1.000000e+00  -2.000000e+00  -4.000000e+00  0  32 0  1.000000e+02 -2.000000e+01 1.000000e+01   0.000000e+00 1.000000e-02  1.000000e+00  
-8.000000e-01  -2.000000e+00  -3.650000e+00  0  97 0  9.999640e+01 -1.998612e+01 1.000001e+01   0.000000e+00 1.000000e-02  1.000000e+00  
-1.000000e+00  -2.000000e+00  -3.650000e+00  0  33 0  1.000000e+02 -2.000000e+01 1.000000e+01   0.000000e+00 1.000000e-02  1.000000e+00  
-6.000000e-01  -2.000000e+00  -4.000000e+00  0  160 0  1.000000e+02 -2.000000e+01 1.000000e+01   0.000000e+00 1.000000e-02  1.000000e+00  
-6.000000e-01  -2.000000e+00  -3.650000e+00  0  161 0  9.999308e+01 -1.997340e+01 1.000001e+01   0.000000e+00 1.000000e-02  1.000000e+00  
-4.000000e-01  -2.000000e+00  -4.000000e+00  0  224 0  1.000000e+02 -2.000000e+01 1.000000e+01   0.000000e+00 1.000000e-02  1.000000e+00  
-4.000000e-01  -2.000000e+00  -3.650000e+00  0  225 0  9.999032e+01 -1.996289e+01 1.000001e+01   0.000000e+00 1.000000e-02  1.000000e+00  
-2.000000e-01  -2.000000e+00  -4.000000e+00  0  288 0  1.000000e+02 -2.000000e+01 1.000000e+01   0.000000e+00 1.000000e-02  1.000000e+00  
-2.000000e-01  -2.000000e+00  -3.650000e+00  0  289 0  9.998835e+01 -1.995538e+01 1.000002e+01   0.000000e+00 1.000000e-02  1.000000e+00  
0.000000e+00  -2.000000e+00  -4.000000e+00  0  352 0  1.000000e+02 -2.000000e+01 1.000000e+01   0.000000e+00 1.000000e-02  1.000000e+00  
0.000000e+00  -2.000000e+00  -3.650000e+00  0  353 0  9.998728e+01 -1.995126e+01 1.000002e+01   0.000000e+00 1.000000e-02  1.000000e+00  
-8.000000e-01  -1.750000e+00  -4.000000e+00  0  104 0  1.000000e+02 -2.000000e+01 1.000000e+01   0.000000e+00 1.000000e-02  1.000000e+00  
-1.000000e+00  -1.750000e+00  -4.000000e+00  0  40 0  1.000000e+02 -2.000000e+01 1.000000e+01   0.000000e+00 1.000000e-02  1.000000e+00  
-8.000000e-01  -1.750000e+00  -3.650000e+00  0  105 0  9.999471e+01 -1.998435e+01 1.000001e+01   0.000000e+00 1.000000e-02  1.000000e+00  
-1.000000e+00  -1.750000e+00  -3.650000e+00  0  41 0  1.000000e+02 -2.000000e+01 1.000000e+01   0.000000e+00 1.000000e-02  1.000000e+00  
-6.000000e-01  -1.750000e+00  -4.000000e+00  0  168 0  1.000000e+02 -2.000000e+01 1.000000e+01   0.000000e+00 1.000000e-02  1.000000e+00  
-6.000000e-01  -1.750000e+00  -3.650000e+00  0  169 0  9.998984e+01 -1.997001e+01 1.000001e+01   0.000000e+00 1.000000e-02  1.000000e+00  
-4.000000e-01  -1.750000e+00  -4.000000e+00  0  232 0  1.000000e+02 -2.000000e+01 1.000000e+01   0.000000e+00 1.000000e-02  1.000000e+00  
-4.000000e-01  -1.750000e+00  -3.650000e+00  0  233 0  9.998580e+01 -1.995817e+01 1.000001e+01   0.000000e+00 1.000000e-02  1.000000e+00  
-2.000000e-01  -1.750000e+00  -4.000000e+00  0  296 0  1.000000e+02 -2.000000e+01 1.000000e+01   0.000000e+00 1.000000e-02  1.000000e+00  
-2.000000e-01  -1.750000e+00  -3.650000e+00  0  297 0  9.998291e+01 -1.994969e+01 1.000001e+01   0.000000e+00 1.000000e-02  1.000000e+00  
0.000000e+00  -1.750000e+00  -4.000000e+00  0  360 0  1.000000e+02 -2.000000e+01 1.000000e+01   0.000000e+00 1.000000e-02  1.000000e+00  
0.000000e+00  -1.750000e+00  -3.650000e+00  0  361 0  9.998135e+01 -1.994505e+01 1.000001e+01   0.000000e+00 1.000000e-02  1.000000e+00  
-1.000000e+00  -3.000000e+00  -3.300000e+00  0  2 0  1.000000e+02 -2.000000e+01 1.000000e+01   0.000000e+00 1.000000e-02  1.000000e+00  
-8.000000e-01  -3.000000e+00  -3.300000e+00  0  66 0  1.000000e+02 -2.000000e+01 1.000000e+01   0.000000e+00 1.000000e-02  1.000000e+00  
-8.000000e-01  -2.750000e+00  -3.300000e+00  0  74 0  9.999870e+01 -1.999195e+01 1.000001e+01   0.000000e+00 1.000000e-02  1.000000e+00  
-1.000000e+00  -2.750000e+00  -3.300000e+00  0  10 0  1.000000e+02 -2.000000e+01 1.000000e+01   0.000000e+00 1.000000e-02  1.000000e+00  
-6.000000e-01  -3.000000e+00  -3.300000e+00  0  130 0  1.000000e+02 -2.000000e+01 1.000000e+01   0.000000e+00 1.000000e-02  1.000000e+00  
-6.000000e-01  -2.750000e+00  -3.300000e+00  0  138 0  9.999747e+01 -1.998458e+01 1.000001e+01   0.000000e+00 1.000000e-02  1.000000e+00  
-4.000000e-01  -3.000000e+00  -3.300000e+00  0  194 0  1.000000e+02 -2.000000e+01 1.000000e+01   0.000000e+00 1.000000e-02  1.000000e+00  
-4.000000e-01  -2.750000e+00  -3.300000e+00  0  202 0  9.999645e+01 -1.997849e+01 1.000001e+01   0.000000e+00 1.000000e-02  1.000000e+00  
-2.000000e-01  -3.000000e+00  -3.300000e+00  0  258 0  1.000000e+02 -2.000000e+01 1.000000e+01   0.000000e+00 1.000000e-02  1.000000e+00  
-2.000000e-01  -2.750000e+00  -3.300000e+00  0  266 0  9.999572e+01 -1.997412e+01 1.000001e+01   0.000000e+00 1.000000e-02  1.000000e+00  
0.000000e+00  -3.000000e+00  -3.300000e+00  0  322 0  1.000000e+02 -2.000000e+01 1.000000e+01   0.000000e+00 1.000000e-02  1.000000e+00  
0.000000e+00  -2.750000e+00  -3.300000e+00  0  330 0  9.999532e+01 -1.997174e+01 1.000002e+01   0.000000e+00 1.000000e-02  1.000000e+00  
-8.000000e-01  -2.500000e+00  -3.300000e+00  0  82 0  9.999709e+01 -1.998438e+01 1.000001e+01   0.000000e+00 1.000000e-02  1.000000e+00  
-1.000000e+00  -2.500000e+00  -3.300000e+00  0  18 0  1.000000e+02 -2.000000e+01 1.000000e+01   0.000000e+00 1.000000e-02  1.000000e+00  
-6.000000e-01  -2.500000e+00  -3.300000e+00  0  146 0  9.999439e+01 -1.997007e+01 1.000002e+01   0.000000e+00 1.000000e-02  1.000000e+00  
-4.000000e-01  -2.500000e+00  -3.300000e+00  0  210 0  9.999215e+01 -1.995824e+01 1.000002e+01   0.000000e+00 1.000000e-02  1.000000e+00  
-2.000000e-01  -2.500000e+00  -3.300000e+00  0  274 0  9.999054e+01 -1.994978e+01 1.000002e+01   0.000000e+00 1.000000e-02  1.000000e+00  
0.000000e+00  -2.500000e+00  -3.300000e+00  0  338 0  9.998967e+01 -1.994515e+01 1.000002e+01   0.000000e+00 1.000000e-02  1.000000e+00  
-8.000000e-01  -2.250000e+00  -3.300000e+00  0  90 0  9.999496e+01 -1.997775e+01 1.000001e+01   0.000000e+00 1.000000e-02  1.000000e+00  
-1.000000e+00  -2.250000e+00  -3.300000e+00  0  26 0  1.000000e+02 -2.000000e+01 1.000000e+01   0.000000e+00 1.000000e-02  1.000000e+00  
-6.000000e-01  -2.250000e+00  -3.300000e+00  0  154 0  9.999031e+01 -1.995737e+01 1.000002e+01   0.000000e+00 1.000000e-02  1.000000e+00  
-4.000000e-01  -2.250000e+00  -3.300000e+00  0  218 0  9.998645e+01 -1.994053e+01 1.000002e+01   0.000000e+00 1.000000e-02  1.000000e+00  
-2.000000e-01  -2.250000e+00  -3.300000e+00  0  282 0  9.998368e+01 -1.992848e+01 1.000003e+01   0.000000e+00 1.000000e-02  1.000000e+00  
0.000000e+00  -2.250000e+00  -3.300000e+00  0  346 0  9.998218e+01 -1.992189e+01 1.000003e+01   0.000000e+00 1.000000e-02  1.000000e+00  
-8.000000e-01  -2.000000e+00  -3.300000e+00  0  98 0  9.999211e+01 -1.997251e+01 1.000001e+01   0.000000e+00 1.000000e-02  1.000000e+00  
-1.000000e+00  -2.000000e+00  -3.300000e+00  0  34 0  1.000000e+02 -2.000000e+01 1.000000e+01   0.000000e+00 1.000000e-02  1.000000e+00  
-6.000000e-01  -2.000000e+00  -3.300000e+00  0  162 0  9.998485e+01 -1.994733e+01 1.000002e+01   0.000000e+00 1.000000e-02  1.000000e+00  
-4.000000e-01  -2.000000e+00  -3.300000e+00  0  226 0  9.997883e+01 -1.992653e+01 1.000002e+01   0.000000e+00 1.000000e-02  1.000000e+00  
-2.000000e-01  -2.000000e+00  -3.300000e+00  0  290 0  9.997453e+01 -1.991164e+01 1.000002e+01   0.000000e+00 1.000000e-02  1.000000e+00  
0.000000e+00  -2.000000e+00  -3.300000e+00  0  354 0  9.997219e+01 -1.990350e+01 1.000002e+01   0.000000e+00 1.000000e-02  1.000000e+00  
-8.000000e-01  -1.750000e+00  -3.300000e+00  0  106 0  9.998843e+01 -1.996901e+01 1.000001e+01   0.000000e+00 1.000000e-02  1.000000e+00  
-1.000000e+00  -1.750000e+00  -3.300000e+00  0  42 0  1.000000e+02 -2.000000e+01 1.000000e+01   0.000000e+00 1.000000e-02  1.000000e+00  
-6.000000e-01  -1.750000e+00  -3.300000e+00  0  170 0  9.997779e+01 -1.994062e+01 1.000001e+01   0.000000e+00 1.000000e-02  1.000000e+00  
-4.000000e-01  -1.750000e+00  -3.300000e+00  0  234 0  9.996899e+01 -1.991717e+01 1.000001e+01   0.000000e+00 1.000000e-02  1.000000e+00  
-2.000000e-01  -1.750000e+00  -3.300000e+00  0  298 0  9.996270e+01 -1.990039e+01 1.000001e+01   0.000000e+00 1.000000e-02  1.000000e+00  
0.000000e+00  -1.750000e+00  -3.300000e+00  0  362 0  9.995928e+01 -1.989121e+01 1.000001e+01   0.000000e+00 1.000000e-02  1.000000e+00  
-1.000000e+00  -3.000000e+00  -2.950000e+00  0  3 0  1.000000e+02 -2.000000e+01 1.000000e+01   0.000000e+00 1.000000e-02  1.000000e+00  
-8.000000e-01  -3.000000e+00  -2.950000e+00  0  67 0  1.000000e+02 -2.000000e+01 1.000000e+01   0.000000e+00 1.000000e-02  1.000000e+00  
-8.000000e-01  -2.750000e+00  -2.950000e+00  0  75 0  9.999775e+01 -1.998817e+01 1.000001e+01   0.000000e+00 1.000000e-02  1.000000e+00  
-1.000000e+00  -2.750000e+00  -2.950000e+00  0  11 0  1.000000e+02 -2.000000e+01 1.000000e+01   0.000000e+00 1.000000e-02  1.000000e+00  
-6.000000e-01  -3.000000e+00  -2.950000e+00  0  131 0  1.000000e+02 -2.000000e+01 1.000000e+01   0.000000e+00 1.000000e-02  1.000000e+00  
-6.000000e-01  -2.750000e+00  -2.950000e+00  0  139 0  9.999565e+01 -1.997734e+01 1.000001e+01   0.000000e+00 1.000000e-02  1.000000e+00  
-4.000000e-01  -3.000000e+00  -2.950000e+00  0  195 0  1.000000e+02 -2.000000e+01 1.000000e+01   0.000000e+00 1.000000e-02  1.000000e+00  
-4.000000e-01  -2.750000e+00  -2.950000e+00  0  203 0  9.999391e+01 -1.996839e+01 1.000002e+01   0.000000e+00 1.000000e-02  1.000000e+00  
-2.000000e-01  -3.000000e+00  -2.950000e+00  0  259 0  1.000000e+02 -2.000000e+01 1.000000e+01   0.000000e+00 1.000000e-02  1.000000e+00  
-2.000000e-01  -2.750000e+00  -2.950000e+00  0  267 0  9.999266e+01 -1.996198e+01 1.000002e+01   0.000000e+00 1.000000e-02  1.000000e+00  
0.000000e+00  -3.000000e+00  -2.950000e+00  0  323 0  1.000000e+02 -2.000000e+01 1.000000e+01   0.000000e+00 1.000000e-02  1.000000e+00  
0.000000e+00  -2.750000e+00  -2.950000e+00  0  331 0  9.999198e+01 -1.995847e+01 1.000002e+01   0.000000e+00 1.000000e-02  1.000000e+00  
-8.000000e-01  -2.500000e+00  -2.950000e+00  0  83 0  9.999501e+01 -1.997704e+01 1.000001e+01   0.000000e+00 1.000000e-02  1.000000e+00  
-1.000000e+00  -2.500000e+00  -2.950000e+00  0  19 0  1.000000e+02 -2.000000e+01 1.000000e+01   0.000000e+00 1.000000e-02  1.000000e+00  
-6.000000e-01  -2.500000e+00  -2.950000e+00  0  147 0  9.999039e+01 -1.995602e+01 1.000002e+01   0.000000e+00 1.000000e-02  1.000000e+00  
-4.000000e-01  -2.500000e+00  -2.950000e+00  0  211 0  9.998657e+01 -1.993864e+01 1.000002e+01   0.000000e+00 1.000000e-02  1.000000e+00  
-2.000000e-01  -2.500000e+00  -2.950000e+00  0  275 0  9.998383e+01 -1.992621e+01 1.000003e+01   0.000000e+00 1.000000e-02  1.000000e+00  
0.000000e+00  -2.500000e+00  -2.950000e+00  0  339 0  9.998234e+01 -1.991940e+01 1.000003e+01   0.000000e+00 1.000000e-02  1.000000e+00  
-8.000000e-01  -2.250000e+00  -2.950000e+00  0  91 0  9.999138e+01 -1.996731e+01 1.000001e+01   0.000000e+00 1.000000e-02  1.000000e+00  
-1.000000e+00  -2.250000e+00  -2.950000e+00  0  27 0  1.000000e+02 -2.000000e+01 1.000000e+01   0.000000e+00 1.000000e-02  1.000000e+00  
-6.000000e-01  -2.250000e+00  -2.950000e+00  0  155 0  9.998345e+01 -1.993737e+01 1.000002e+01   0.000000e+00 1.000000e-02  1.000000e+00  
-4.000000e-01  -2.250000e+00  -2.950000e+00  0  219 0  9.997688e+01 -1.991263e+01 1.000003e+01   0.000000e+00 1.000000e-02  1.000000e+00  
-2.000000e-01  -2.250000e+00  -2.950000e+00  0  283 0  9.997218e+01 -1.989492e+01 1.000003e+01   0.000000e+00 1.000000e-02  1.000000e+00  
0.000000e+00  -2.250000e+00  -2.950000e+00  0  347 0  9.996963e+01 -1.988523e+01 1.000003e+01   0.000000e+00 1.000000e-02  1.000000e+00  
-8.000000e-01  -2.000000e+00  -2.950000e+00  0  99 0  9.998655e+01 -1.995961e+01 1.000001e+01   0.000000e+00 1.000000e-02  1.000000e+00  
-1.000000e+00  -2.000000e+00  -2.950000e+00  0  35 0  1.000000e+02 -2.000000e+01 1.000000e+01   0.000000e+00 1.000000e-02  1.000000e+00  
-6.000000e-01  -2.000000e+00  -2.950000e+00  0  163 0  9.997419e+01 -1.992262e+01 1.000002e+01   0.000000e+00 1.000000e-02  1.000000e+00  
-4.000000e-01  -2.000000e+00  -2.950000e+00  0  227 0  9.996397e+01 -1.989205e+01 1.000002e+01   0.000000e+00 1.000000e-02  1.000000e+00  
-2.000000e-01  -2.000000e+00  -2.950000e+00  0  291 0  9.995666e+01 -1.987018e+01 1.000002e+01   0.000000e+00 1.000000e-02  1.000000e+00  
0.000000e+00  -2.000000e+00  -2.950000e+00  0  355 0  9.995269e+01 -1.985821e+01 1.000002e+01   0.000000e+00 1.000000e-02  1.000000e+00  
-8.000000e-01  -1.750000e+00  -2.950000e+00  0  107 0  9.998031e+01 -1.995446e+01 1.000000e+01   0.000000e+00 1.000000e-02  1.000000e+00  
-1.000000e+00  -1.750000e+00  -2.950000e+00  0  43 0  1.000000e+02 -2.000000e+01 1.000000e+01   0.000000e+00 1.000000e-02  1.000000e+00  
-6.000000e-01  -1.750000e+00  -2.950000e+00  0  171 0  9.996225e+01 -1.991276e+01 1.000000e+01   0.000000e+00 1.000000e-02  1.000000e+00  
-4.000000e-01  -1.750000e+00  -2.950000e+00  0  235 0  9.994731e+01 -1.987831e+01 1.000000e+01   0.000000e+00 1.000000e-02  1.000000e+00  
-2.000000e-01  -1.750000e+00  -2.950000e+00  0  299 0  9.993663e+01 -1.985365e+01 9.999997e+00   0.000000e+00 1.000000e-02  1.000000e+00  
0.000000e+00  -1.750000e+00  -2.950000e+00  0  363 0  9.993083e+01 -1.984015e+01 9.999995e+00   0.000000e+00 1.000000e-02  1.000000e+00  
-1.000000e+00  -3.000000e+00  -2.600000e+00  0  4 0  1.000000e+02 -2.000000e+01 1.000000e+01   0.000000e+00 1.000000e-02  1.000000e+00  
-8.000000e-01  -3.000000e+00  -2.600000e+00  0  68 0  1.000000e+02 -2.000000e+01 1.000000e+01   0.000000e+00 1.000000e-02  1.000000e+00  
-8.000000e-01  -2.750000e+00  -2.600000e+00  0  76 0  9.999650e+01 -1.998479e+01 1.000001e+01   0.000000e+00 1.000000e-02  1.000000e+00  
-1.000000e+00  -2.750000e+00  -2.600000e+00  0  12 0  1.000000e+02 -2.000000e+01 1.000000e+01   0.000000e+00 1.000000e-02  1.000000e+00  
-6.000000e-01  -3.000000e+00  -2.600000e+00  0  132 0  1.000000e+02 -2.000000e+01 1.000000e+01   0.000000e+00 1.000000e-02  1.000000e+00  
-6.000000e-01  -2.750000e+00  -2.600000e+00  0  140 0  9.999326e+01 -1.997086e+01 1.000001e+01   0.000000e+00 1.000000e-02  1.000000e+00  
-4.000000e-01  -3.000000e+00  -2.600000e+00  0  196 0  1.000000e+02 -2.000000e+01 1.000000e+01   0.000000e+00 1.000000e-02  1.000000e+00  
-4.000000e-01  -2.750000e+00  -2.600000e+00  0  204 0  9.999057e+01 -1.995934e+01 1.000002e+01   0.000000e+00 1.000000e-02  1.000000e+00  
-2.000000e-01  -3.000000e+00  -2.600000e+00  0  260 0  1.000000e+02 -2.000000e+01 1.000000e+01   0.000000e+00 1.000000e-02  1.000000e+00  
-2.000000e-01  -2.750000e+00  -2.600000e+00  0  268 0  9.998865e+01 -1.995110e+01 1.000002e+01   0.000000e+00 1.000000e-02  1.000000e+00  
0.000000e+00  -3.000000e+00  -2.600000e+00  0  324 0  1.000000e+02 -2.000000e+01 1.000000e+01   0.000000e+00 1.000000e-02  1.000000e+00  
0.000000e+00  -2.750000e+00  -2.600000e+00  0  332 0  9.998760e+01 -1.994659e+01 1.000002e+01   0.000000e+00 1.000000e-02  1.000000e+00  
-8.000000e-01  -2.500000e+00  -2.600000e+00  0  84 0  9.999227e+01 -1.997048e+01 1.000001e+01   0.000000e+00 1.000000e-02  1.000000e+00  
-1.000000e+00  -2.500000e+00  -2.600000e+00  0  20 0  1.000000e+02 -2.000000e+01 1.000000e+01   0.000000e+00 1.000000e-02  1.000000e+00  
-6.000000e-01  -2.500000e+00  -2.600000e+00  0  148 0  9.998515e+01 -1.994344e+01 1.000002e+01   0.000000e+00 1.000000e-02  1.000000e+00  
-4.000000e-01  -2.500000e+00  -2.600000e+00  0  212 0  9.997925e+01 -1.992110e+01 1.000002e+01   0.000000e+00 1.000000e-02  1.000000e+00  
-2.000000e-01  -2.500000e+00  -2.600000e+00  0  276 0  9.997503e+01 -1.990511e+01 1.000002e+01   0.000000e+00 1.000000e-02  1.000000e+00  
0.000000e+00  -2.500000e+00  -2.600000e+00  0  340 0  9.997274e+01 -1.989635e+01 1.000002e+01   0.000000e+00 1.000000e-02  1.000000e+00  
-8.000000e-01  -2.250000e+00  -2.600000e+00  0  92 0  9.998670e+01 -1.995796e+01 1.000001e+01   0.000000e+00 1.000000e-02  1.000000e+00  
-1.000000e+00  -2.250000e+00  -2.600000e+00  0  28 0  1.000000e+02 -2.000000e+01 1.000000e+01   0.000000e+00 1.000000e-02  1.000000e+00  
-6.000000e-01  -2.250000e+00  -2.600000e+00  0  156 0  9.997448e+01 -1.991946e+01 1.000002e+01   0.000000e+00 1.000000e-02  1.000000e+00  
-4.000000e-01  -2.250000e+00  -2.600000e+00  0  220 0  9.996437e+01 -1.988764e+01 1.000002e+01   0.000000e+00 1.000000e-02  1.000000e+00  
-2.000000e-01  -2.250000e+00  -2.600000e+00  0  284 0  9.995715e+01 -1.986487e+01 1.000002e+01   0.000000e+00 1.000000e-02  1.000000e+00  
0.000000e+00  -2.250000e+00  -2.600000e+00  0  348 0  9.995322e+01 -1.985241e+01 1.000002e+01   0.000000e+00 1.000000e-02  1.000000e+00  
-8.000000e-01  -2.000000e+00  -2.600000e+00  0  100 0  9.997929e+01 -1.994806e+01 1.000001e+01   0.000000e+00 1.000000e-02  1.000000e+00  
-1.000000e+00  -2.000000e+00  -2.600000e+00  0  36 0  1.000000e+02 -2.000000e+01 1.000000e+01   0.000000e+00 1.000000e-02  1.000000e+00  
-6.000000e-01  -2.000000e+00  -2.600000e+00  0  164 0  9.996029e+01 -1.990049e+01 1.000001e+01   0.000000e+00 1.000000e-02  1.000000e+00  
-4.000000e-01  -2.000000e+00  -2.600000e+00  0  228 0  9.994457e+01 -1.986119e+01 1.000000e+01   0.000000e+00 1.000000e-02  1.000000e+00  
-2.000000e-01  -2.000000e+00  -2.600000e+00  0  292 0  9.993334e+01 -1.983306e+01 1.000000e+01   0.000000e+00 1.000000e-02  1.000000e+00  
0.000000e+00  -2.000000e+00  -2.600000e+00  0  356 0  9.992723e+01 -1.981767e+01 9.999999e+00   0.000000e+00 1.000000e-02  1.000000e+00  
-8.000000e-01  -1.750000e+00  -2.600000e+00  0  108 0  9.996974e+01 -1.994144e+01 9.999993e+00   0.000000e+00 1.000000e-02  1.000000e+00  
-1.000000e+00  -1.750000e+00  -2.600000e+00  0  44 0  1.000000e+02 -2.000000e+01 1.000000e+01   0.000000e+00 1.000000e-02  1.000000e+00  
-6.000000e-01  -1.750000e+00  -2.600000e+00  0  172 0  9.994199e+01 -1.988782e+01 9.999982e+00   0.000000e+00 1.000000e-02  1.000000e+00  
-4.000000e-01  -1.750000e+00  -2.600000e+00  0  236 0  9.991906e+01 -1.984351e+01 9.999970e+00   0.000000e+00 1.000000e-02  1.000000e+00  
-2.000000e-01  -1.750000e+00  -2.600000e+00  0  300 0  9.990267e+01 -1.981180e+01 9.999960e+00   0.000000e+00 1.000000e-02  1.000000e+00  
0.000000e+00  -1.750000e+00  -2.600000e+00  0  364 0  9.989375e+01 -1.979445e+01 9.999954e+00   0.000000e+00 1.000000e-02  1.000000e+00  
-1.000000e+00  -3.000000e+00  -2.250000e+00  0  5 0  1.000000e+02 -2.000000e+01 1.000000e+01   0.000000e+00 1.000000e-02  1.000000e+00  
-8.000000e-01  -3.000000e+00  -2.250000e+00  0  69 0  1.000000e+02 -2.000000e+01 1.000000e+01   0.000000e+00 1.000000e-02  1.000000e+00  
-8.000000e-01  -2.750000e+00  -2.250000e+00  0  77 0  9.999492e+01 -1.998204e+01 1.000001e+01   0.000000e+00 1.000000e-02  1.000000e+00  
-1.000000e+00  -2.750000e+00  -2.250000e+00  0  13 0  1.000000e+02 -2.000000e+01 1.000000e+01   0.000000e+00 1.000000e-02  1.000000e+00  
-6.000000e-01  -3.000000e+00  -2.250000e+00  0  133 0  1.000000e+02 -2.000000e+01 1.000000e+01   0.000000e+00 1.000000e-02  1.000000e+00  
-6.000000e-01  -2.750000e+00  -2.250000e+00  0  141 0  9.999023e+01 -1.996559e+01 1.000001e+01   0.000000e+00 1.000000e-02  1.000000e+00  
-4.000000e-01  -3.000000e+00  -2.250000e+00  0  197 0  1.000000e+02 -2.000000e+01 1.000000e+01   0.000000e+00 1.000000e-02  1.000000e+00  
-4.000000e-01  -2.750000e+00  -2.250000e+00  0  205 0  9.998635e+01 -1.995200e+01 1.000001e+01   0.000000e+00 1.000000e-02  1.000000e+00  
-2.000000e-01  -3.000000e+00  -2.250000e+00  0  261 0  1.000000e+02 -2.000000e+01 1.000000e+01   0.000000e+00 1.000000e-02  1.000000e+00  
-2.000000e-01  -2.750000e+00  -2.250000e+00  0  269 0  9.998358e+01 -1.994227e+01 1.000001e+01   0.000000e+00 1.000000e-02  1.000000e+00  
0.000000e+00  -3.000000e+00  -2.250000e+00  0  325 0  1.000000e+02 -2.000000e+01 1.000000e+01   0.000000e+00 1.000000e-02  1.000000e+00  
0.000000e+00  -2.750000e+00  -2.250000e+00  0  333 0  9.998207e+01 -1.993694e+01 1.000001e+01   0.000000e+00 1.000000e-02  1.000000e+00  
-8.000000e-01  -2.500000e+00  -2.250000e+00  0  85 0  9.998881e+01 -1.996514e+01 1.000001e+01   0.000000e+00 1.000000e-02  1.000000e+00  
-1.000000e+00  -2.500000e+00  -2.250000e+00  0  21 0  1.000000e+02 -2.000000e+01 1.000000e+01   0.000000e+00 1.000000e-02  1.000000e+00  
-6.000000e-01  -2.500000e+00  -2.250000e+00  0  149 0  9.997853e+01 -1.993322e+01 1.000001e+01   0.000000e+00 1.000000e-02  1.000000e+00  
-4.000000e-01  -2.500000e+00  -2.250000e+00  0  213 0  9.997002e+01 -1.990684e+01 1.000002e+01   0.000000e+00 1.000000e-02  1.000000e+00  
-2.000000e-01  -2.500000e+00  -2.250000e+00  0  277 0  9.996394e+01 -1.988796e+01 1.000002e+01   0.000000e+00 1.000000e-02  1.000000e+00  
0.000000e+00  -2.500000e+00  -2.250000e+00  0  341 0  9.996064e+01 -1.987763e+01 1.000002e+01   0.000000e+00 1.000000e-02  1.000000e+00  
-8.000000e-01  -2.250000e+00  -2.250000e+00  0  93 0  9.998080e+01 -1.995036e+01 1.000001e+01   0.000000e+00 1.000000e-02  1.000000e+00  
-1.000000e+00  -2.250000e+00  -2.250000e+00  0  29 0  1.000000e+02 -2.000000e+01 1.000000e+01   0.000000e+00 1.000000e-02  1.000000e+00  
-6.000000e-01  -2.250000e+00  -2.250000e+00  0  157 0  9.996318e+01 -1.990491e+01 1.000001e+01   0.000000e+00 1.000000e-02  1.000000e+00  
-4.000000e-01  -2.250000e+00  -2.250000e+00  0  221 0  9.994861e+01 -1.986735e+01 1.000000e+01   0.000000e+00 1.000000e-02  1.000000e+00  
-2.000000e-01  -2.250000e+00  -2.250000e+00  0  285 0  9.993820e+01 -1.984047e+01 1.000000e+01   0.000000e+00 1.000000e-02  1.000000e+00  
0.000000e+00  -2.250000e+00  -2.250000e+00  0  349 0  9.993254e+01 -1.982575e+01 1.000000e+01   0.000000e+00 1.000000e-02  1.000000e+00  
-8.000000e-01  -2.000000e+00  -2.250000e+00  0  101 0  9.997015e+01 -1.993867e+01 9.999995e+00   0.000000e+00 1.000000e-02  1.000000e+00  
-1.000000e+00  -2.000000e+00  -2.250000e+00  0  37 0  1.000000e+02 -2.000000e+01 1.000000e+01   0.000000e+00 1.000000e-02  1.000000e+00  
-6.000000e-01  -2.000000e+00  -2.250000e+00  0  165 0  9.994278e+01 -1.988252e+01 9.999985e+00   0.000000e+00 1.000000e-02  1.000000e+00  
-4.000000e-01  -2.000000e+00  -2.250000e+00  0  229 0  9.992016e+01 -1.983612e+01 9.999973e+00   0.000000e+00 1.000000e-02  1.000000e+00  
-2.000000e-01  -2.000000e+00  -2.250000e+00  0  293 0  9.990399e+01 -1.980291e+01 9.999964e+00   0.000000e+00 1.000000e-02  1.000000e+00  
0.000000e+00  -2.000000e+00  -2.250000e+00  0  357 0  9.989519e+01 -1.978473e+01 9.999958e+00   0.000000e+00 1.000000e-02  1.000000e+00  
-8.000000e-01  -1.750000e+00  -2.250000e+00  0  109 0  9.995644e+01 -1.993086e+01 9.999972e+00   0.000000e+00 1.000000e-02  1.000000e+00  
-1.000000e+00  -1.750000e+00  -2.250000e+00  0  45 0  1.000000e+02 -2.000000e+01 1.000000e+01   0.000000e+00 1.000000e-02  1.000000e+00  
-6.000000e-01  -1.750000e+00  -2.250000e+00  0  173 0  9.991652e+01 -1.986756e+01 9.999941e+00   0.000000e+00 1.000000e-02  1.000000e+00  
-4.000000e-01  -1.750000e+00  -2.250000e+00  0  237 0  9.988353e+01 -1.981525e+01 9.999912e+00   0.000000e+00 1.000000e-02  1.000000e+00  