VARIABLES="X", "Y", "Z", "Maximum Refinment Level", "Temp_ID", "Thread", "test wave (corner node)[i=0]", "test wave (corner node)[i=1]", "test wave (corner node)[i=2]","test wave (center node)", "Local Time Step" , "log10(Local Particle Weight)" 
ZONE N=9261, E=8000, DATAPACKING=POINT, ZONETYPE=FEBRICK
-1.000000e+00  -3.000000e+00  -4.000000e+00  0  0 0  1.000000e+02 -2.000000e+01 1.000000e+01   0.000000e+00 1.000000e-02  1.000000e+00  
-8.000000e-01  -3.000000e+00  -4.000000e+00  0  1 0  1.000000e+02 -2.000000e+01 1.000000e+01   0.000000e+00 1.000000e-02  1.000000e+00  
-8.000000e-01  -2.750000e+00  -4.000000e+00  0  9 0  1.000000e+02 -2.000000e+01 1.000000e+01   0.000000e+00 1.000000e-02  1.000000e+00  
-1.000000e+00  -2.750000e+00  -4.000000e+00  0  8 0  1.000000e+02 -2.000000e+01 1.000000e+01   0.000000e+00 1.000000e-02  1.000000e+00  
-1.000000e+00  -3.000000e+00  -3.650000e+00  0  64 0  1.000000e+02 -2.000000e+01 1.000000e+01   0.000000e+00 1.000000e-02  1.000000e+00  
-8.000000e-01  -3.000000e+00  -3.650000e+00  0  65 0  1.000000e+02 -2.000000e+01 1.000000e+01   0.000000e+00 1.000000e-02  1.000000e+00  
-8.000000e-01  -2.750000e+00  -3.650000e+00  0  73 0  9.999942e+01 -1.999594e+01 1.000001e+01   0.000000e+00 1.000000e-02  1.000000e+00  
-1.000000e+00  -2.750000e+00  -3.650000e+00  0  72 0  1.000000e+02 -2.000000e+01 1.000000e+01   0.000000e+00 1.000000e-02  1.000000e+00  
-6.000000e-01  -3.000000e+00  -4.000000e+00  0  2 0  1.000000e+02 -2.000000e+01 1.000000e+01   0.000000e+00 1.000000e-02  1.000000e+00  
-6.000000e-01  -2.750000e+00  -4.000000e+00  0  10 0  1.000000e+02 -2.000000e+01 1.000000e+01   0.000000e+00 1.000000e-02  1.000000e+00  
-6.000000e-01  -3.000000e+00  -3.650000e+00  0  66 0  1.000000e+02 -2.000000e+01 1.000000e+01   0.000000e+00 1.000000e-02  1.000000e+00  
-6.000000e-01  -2.750000e+00  -3.650000e+00  0  74 0  9.999888e+01 -1.999222e+01 1.000001e+01   0.000000e+00 1.000000e-02  1.000000e+00  
-4.000000e-01  -3.000000e+00  -4.000000e+00  0  3 0  1.000000e+02 -2.000000e+01 1.000000e+01   0.000000e+00 1.000000e-02  1.000000e+00  
-4.000000e-01  -2.750000e+00  -4.000000e+00  0  11 0  1.000000e+02 -2.000000e+01 1.000000e+01   0.000000e+00 1.000000e-02  1.000000e+00  
-4.000000e-01  -3.000000e+00  -3.650000e+00  0  67 0  1.000000e+02 -2.000000e+01 1.000000e+01   0.000000e+00 1.000000e-02  1.000000e+00  
-4.000000e-01  -2.750000e+00  -3.650000e+00  0  75 0  9.999842e+01 -1.998914e+01 1.000001e+01   0.000000e+00 1.000000e-02  1.000000e+00  
-2.000000e-01  -3.000000e+00  -4.000000e+00  0  4 0  1.000000e+02 -2.000000e+01 1.000000e+01   0.000000e+00 1.000000e-02  1.000000e+00  
-2.000000e-01  -2.750000e+00  -4.000000e+00  0  12 0  1.000000e+02 -2.000000e+01 1.000000e+01   0.000000e+00 1.000000e-02  1.000000e+00  
-2.000000e-01  -3.000000e+00  -3.650000e+00  0  68 0  1.000000e+02 -2.000000e+01 1.000000e+01   0.000000e+00 1.000000e-02  1.000000e+00  
-2.000000e-01  -2.750000e+00  -3.650000e+00  0  76 0  9.999809e+01 -1.998694e+01 1.000001e+01   0.000000e+00 1.000000e-02  1.000000e+00  
0.000000e+00  -3.000000e+00  -4.000000e+00  0  5 0  1.000000e+02 -2.000000e+01 1.000000e+01   0.000000e+00 1.000000e-02  1.000000e+00  
0.000000e+00  -2.750000e+00  -4.000000e+00  0  13 0  1.000000e+02 -2.000000e+01 1.000000e+01   0.000000e+00 1.000000e-02  1.000000e+00  
0.000000e+00  -3.000000e+00  -3.650000e+00  0  69 0  1.000000e+02 -2.000000e+01 1.000000e+01   0.000000e+00 1.000000e-02  1.000000e+00  
0.000000e+00  -2.750000e+00  -3.650000e+00  0  77 0  9.999791e+01 -1.998574e+01 1.000001e+01   0.000000e+00 1.000000e-02  1.000000e+00  
-8.000000e-01  -2.500000e+00  -4.000000e+00  0  17 0  1.000000e+02 -2.000000e+01 1.000000e+01   0.000000e+00 1.000000e-02  1.000000e+00  
-1.000000e+00  -2.500000e+00  -4.000000e+00  0  16 0  1.000000e+02 -2.000000e+01 1.000000e+01   0.000000e+00 1.000000e-02  1.000000e+00  
-8.000000e-01  -2.500000e+00  -3.650000e+00  0  81 0  9.999870e+01 -1.999212e+01 1.000001e+01   0.000000e+00 1.000000e-02  1.000000e+00  
-1.000000e+00  -2.500000e+00  -3.650000e+00  0  80 0  1.000000e+02 -2.000000e+01 1.000000e+01   0.000000e+00 1.000000e-02  1.000000e+00  
-6.000000e-01  -2.500000e+00  -4.000000e+00  0  18 0  1.000000e+02 -2.000000e+01 1.000000e+01   0.000000e+00 1.000000e-02  1.000000e+00  
-6.000000e-01  -2.500000e+00  -3.650000e+00  0  82 0  9.999749e+01 -1.998489e+01 1.000001e+01   0.000000e+00 1.000000e-02  1.000000e+00  
-4.000000e-01  -2.500000e+00  -4.000000e+00  0  19 0  1.000000e+02 -2.000000e+01 1.000000e+01   0.000000e+00 1.000000e-02  1.000000e+00  
-4.000000e-01  -2.500000e+00  -3.650000e+00  0  83 0  9.999648e+01 -1.997892e+01 1.000002e+01   0.000000e+00 1.000000e-02  1.000000e+00  
-2.000000e-01  -2.500000e+00  -4.000000e+00  0  20 0  1.000000e+02 -2.000000e+01 1.000000e+01   0.000000e+00 1.000000e-02  1.000000e+00  
-2.000000e-01  -2.500000e+00  -3.650000e+00  0  84 0  9.999575e+01 -1.997465e+01 1.000002e+01   0.000000e+00 1.000000e-02  1.000000e+00  
0.000000e+00  -2.500000e+00  -4.000000e+00  0  21 0  1.000000e+02 -2.000000e+01 1.000000e+01   0.000000e+00 1.000000e-02  1.000000e+00  
0.000000e+00  -2.500000e+00  -3.650000e+00  0  85 0  9.999537e+01 -1.997232e+01 1.000002e+01   0.000000e+00 1.000000e-02  1.000000e+00  
-8.000000e-01  -2.250000e+00  -4.000000e+00  0  25 0  1.000000e+02 -2.000000e+01 1.000000e+01   0.000000e+00 1.000000e-02  1.000000e+00  
-1.000000e+00  -2.250000e+00  -4.000000e+00  0  24 0  1.000000e+02 -2.000000e+01 1.000000e+01   0.000000e+00 1.000000e-02  1.000000e+00  
-8.000000e-01  -2.250000e+00  -3.650000e+00  0  89 0  9.999773e+01 -1.998877e+01 1.000001e+01   0.000000e+00 1.000000e-02  1.000000e+00  
-1.000000e+00  -2.250000e+00  -3.650000e+00  0  88 0  1.000000e+02 -2.000000e+01 1.000000e+01   0.000000e+00 1.000000e-02  1.000000e+00  
-6.000000e-01  -2.250000e+00  -4.000000e+00  0  26 0  1.000000e+02 -2.000000e+01 1.000000e+01   0.000000e+00 1.000000e-02  1.000000e+00  
-6.000000e-01  -2.250000e+00  -3.650000e+00  0  90 0  9.999563e+01 -1.997848e+01 1.000002e+01   0.000000e+00 1.000000e-02  1.000000e+00  
-4.000000e-01  -2.250000e+00  -4.000000e+00  0  27 0  1.000000e+02 -2.000000e+01 1.000000e+01   0.000000e+00 1.000000e-02  1.000000e+00  
-4.000000e-01  -2.250000e+00  -3.650000e+00  0  91 0  9.999389e+01 -1.996998e+01 1.000002e+01   0.000000e+00 1.000000e-02  1.000000e+00  
-2.000000e-01  -2.250000e+00  -4.000000e+00  0  28 0  1.000000e+02 -2.000000e+01 1.000000e+01   0.000000e+00 1.000000e-02  1.000000e+00  
-2.000000e-01  -2.250000e+00  -3.650000e+00  0  92 0  9.999264e+01 -1.996390e+01 1.000003e+01   0.000000e+00 1.000000e-02  1.000000e+00  
0.000000e+00  -2.250000e+00  -4.000000e+00  0  29 0  1.000000e+02 -2.000000e+01 1.000000e+01   0.000000e+00 1.000000e-02  1.000000e+00  
0.000000e+00  -2.250000e+00  -3.650000e+00  0  93 0  9.999197e+01 -1.996058e+01 1.000003e+01   0.000000e+00 1.000000e-02  1.000000e+00  
-8.000000e-01  -2.000000e+00  -4.000000e+00  0  33 0  1.000000e+02 -2.000000e+01 1.000000e+01   0.000000e+00 1.000000e-02  1.000000e+00  
-1.000000e+00  -2.000000e+00  -4.000000e+00  0  32 0  1.000000e+02 -2.000000e+01 1.000000e+01   0.000000e+00 1.000000e-02  1.000000e+00  
-8.000000e-01  -2.000000e+00  -3.650000e+00  0  97 0  9.999643e+01 -1.998612e+01 1.000001e+01   0.000000e+00 1.000000e-02  1.000000e+00  
-1.000000e+00  -2.000000e+00  -3.650000e+00  0  96 0  1.000000e+02 -2.000000e+01 1.000000e+01   0.000000e+00 1.000000e-02  1.000000e+00  
-6.000000e-01  -2.000000e+00  -4.000000e+00  0  34 0  1.000000e+02 -2.000000e+01 1.000000e+01   0.000000e+00 1.000000e-02  1.000000e+00  
-6.000000e-01  -2.000000e+00  -3.650000e+00  0  98 0  9.999314e+01 -1.997342e+01 1.000002e+01   0.000000e+00 1.000000e-02  1.000000e+00  
-4.000000e-01  -2.000000e+00  -4.000000e+00  0  35 0  1.000000e+02 -2.000000e+01 1.000000e+01   0.000000e+00 1.000000e-02  1.000000e+00  
-4.000000e-01  -2.000000e+00  -3.650000e+00  0  99 0  9.999041e+01 -1.996292e+01 1.000003e+01   0.000000e+00 1.000000e-02  1.000000e+00  
-2.000000e-01  -2.000000e+00  -4.000000e+00  0  36 0  1.000000e+02 -2.000000e+01 1.000000e+01   0.000000e+00 1.000000e-02  1.000000e+00  
-2.000000e-01  -2.000000e+00  -3.650000e+00  0  100 0  9.998846e+01 -1.995540e+01 1.000003e+01   0.000000e+00 1.000000e-02  1.000000e+00  
0.000000e+00  -2.000000e+00  -4.000000e+00  0  37 0  1.000000e+02 -2.000000e+01 1.000000e+01   0.000000e+00 1.000000e-02  1.000000e+00  
0.000000e+00  -2.000000e+00  -3.650000e+00  0  101 0  9.998741e+01 -1.995129e+01 1.000003e+01   0.000000e+00 1.000000e-02  1.000000e+00  
-8.000000e-01  -1.750000e+00  -4.000000e+00  0  41 0  1.000000e+02 -2.000000e+01 1.000000e+01   0.000000e+00 1.000000e-02  1.000000e+00  
-1.000000e+00  -1.750000e+00  -4.000000e+00  0  40 0  1.000000e+02 -2.000000e+01 1.000000e+01   0.000000e+00 1.000000e-02  1.000000e+00  
-8.000000e-01  -1.750000e+00  -3.650000e+00  0  105 0  9.999475e+01 -1.998436e+01 1.000001e+01   0.000000e+00 1.000000e-02  1.000000e+00  
-1.000000e+00  -1.750000e+00  -3.650000e+00  0  104 0  1.000000e+02 -2.000000e+01 1.000000e+01   0.000000e+00 1.000000e-02  1.000000e+00  
-6.000000e-01  -1.750000e+00  -4.000000e+00  0  42 0  1.000000e+02 -2.000000e+01 1.000000e+01   0.000000e+00 1.000000e-02  1.000000e+00  
-6.000000e-01  -1.750000e+00  -3.650000e+00  0  106 0  9.998991e+01 -1.997003e+01 1.000002e+01   0.000000e+00 1.000000e-02  1.000000e+00  
-4.000000e-01  -1.750000e+00  -4.000000e+00  0  43 0  1.000000e+02 -2.000000e+01 1.000000e+01   0.000000e+00 1.000000e-02  1.000000e+00  
-4.000000e-01  -1.750000e+00  -3.650000e+00  0  107 0  9.998591e+01 -1.995819e+01 1.000002e+01   0.000000e+00 1.000000e-02  1.000000e+00  
-2.000000e-01  -1.750000e+00  -4.000000e+00  0  44 0  1.000000e+02 -2.000000e+01 1.000000e+01   0.000000e+00 1.000000e-02  1.000000e+00  
-2.000000e-01  -1.750000e+00  -3.650000e+00  0  108 0  9.998305e+01 -1.994972e+01 1.000003e+01   0.000000e+00 1.000000e-02  1.000000e+00  
0.000000e+00  -1.750000e+00  -4.000000e+00  0  45 0  1.000000e+02 -2.000000e+01 1.000000e+01   0.000000e+00 1.000000e-02  1.000000e+00  
0.000000e+00  -1.750000e+00  -3.650000e+00  0  109 0  9.998150e+01 -1.994509e+01 1.000003e+01   0.000000e+00 1.000000e-02  1.000000e+00  
-1.000000e+00  -3.000000e+00  -3.300000e+00  0  128 0  1.000000e+02 -2.000000e+01 1.000000e+01   0.000000e+00 1.000000e-02  1.000000e+00  
-8.000000e-01  -3.000000e+00  -3.300000e+00  0  129 0  1.000000e+02 -2.000000e+01 1.000000e+01   0.000000e+00 1.000000e-02  1.000000e+00  
-8.000000e-01  -2.750000e+00  -3.300000e+00  0  137 0  9.999871e+01 -1.999196e+01 1.000001e+01   0.000000e+00 1.000000e-02  1.000000e+00  
-1.000000e+00  -2.750000e+00  -3.300000e+00  0  136 0  1.000000e+02 -2.000000e+01 1.000000e+01   0.000000e+00 1.000000e-02  1.000000e+00  
-6.000000e-01  -3.000000e+00  -3.300000e+00  0  130 0  1.000000e+02 -2.000000e+01 1.000000e+01   0.000000e+00 1.000000e-02  1.000000e+00  
-6.000000e-01  -2.750000e+00  -3.300000e+00  0  138 0  9.999750e+01 -1.998459e+01 1.000001e+01   0.000000e+00 1.000000e-02  1.000000e+00  
-4.000000e-01  -3.000000e+00  -3.300000e+00  0  131 0  1.000000e+02 -2.000000e+01 1.000000e+01   0.000000e+00 1.000000e-02  1.000000e+00  
-4.000000e-01  -2.750000e+00  -3.300000e+00  0  139 0  9.999650e+01 -1.997850e+01 1.000002e+01   0.000000e+00 1.000000e-02  1.000000e+00  
-2.000000e-01  -3.000000e+00  -3.300000e+00  0  132 0  1.000000e+02 -2.000000e+01 1.000000e+01   0.000000e+00 1.000000e-02  1.000000e+00  
-2.000000e-01  -2.750000e+00  -3.300000e+00  0  140 0  9.999578e+01 -1.997414e+01 1.000002e+01   0.000000e+00 1.000000e-02  1.000000e+00  
0.000000e+00  -3.000000e+00  -3.300000e+00  0  133 0  1.000000e+02 -2.000000e+01 1.000000e+01   0.000000e+00 1.000000e-02  1.000000e+00  
0.000000e+00  -2.750000e+00  -3.300000e+00  0  141 0  9.999539e+01 -1.997176e+01 1.000002e+01   0.000000e+00 1.000000e-02  1.000000e+00  
-8.000000e-01  -2.500000e+00  -3.300000e+00  0  145 0  9.999712e+01 -1.998438e+01 1.000001e+01   0.000000e+00 1.000000e-02  1.000000e+00  
-1.000000e+00  -2.500000e+00  -3.300000e+00  0  144 0  1.000000e+02 -2.000000e+01 1.000000e+01   0.000000e+00 1.000000e-02  1.000000e+00  
-6.000000e-01  -2.500000e+00  -3.300000e+00  0  146 0  9.999445e+01 -1.997008e+01 1.000002e+01   0.000000e+00 1.000000e-02  1.000000e+00  
-4.000000e-01  -2.500000e+00  -3.300000e+00  0  147 0  9.999224e+01 -1.995827e+01 1.000003e+01   0.000000e+00 1.000000e-02  1.000000e+00  
-2.000000e-01  -2.500000e+00  -3.300000e+00  0  148 0  9.999066e+01 -1.994981e+01 1.000004e+01   0.000000e+00 1.000000e-02  1.000000e+00  
0.000000e+00  -2.500000e+00  -3.300000e+00  0  149 0  9.998981e+01 -1.994518e+01 1.000004e+01   0.000000e+00 1.000000e-02  1.000000e+00  
-8.000000e-01  -2.250000e+00  -3.300000e+00  0  153 0  9.999501e+01 -1.997776e+01 1.000002e+01   0.000000e+00 1.000000e-02  1.000000e+00  
-1.000000e+00  -2.250000e+00  -3.300000e+00  0  152 0  1.000000e+02 -2.000000e+01 1.000000e+01   0.000000e+00 1.000000e-02  1.000000e+00  
-6.000000e-01  -2.250000e+00  -3.300000e+00  0  154 0  9.999040e+01 -1.995740e+01 1.000003e+01   0.000000e+00 1.000000e-02  1.000000e+00  
-4.000000e-01  -2.250000e+00  -3.300000e+00  0  155 0  9.998659e+01 -1.994057e+01 1.000004e+01   0.000000e+00 1.000000e-02  1.000000e+00  
-2.000000e-01  -2.250000e+00  -3.300000e+00  0  156 0  9.998386e+01 -1.992853e+01 1.000005e+01   0.000000e+00 1.000000e-02  1.000000e+00  
0.000000e+00  -2.250000e+00  -3.300000e+00  0  157 0  9.998239e+01 -1.992194e+01 1.000005e+01   0.000000e+00 1.000000e-02  1.000000e+00  
-8.000000e-01  -2.000000e+00  -3.300000e+00  0  161 0  9.999217e+01 -1.997252e+01 1.000002e+01   0.000000e+00 1.000000e-02  1.000000e+00  
-1.000000e+00  -2.000000e+00  -3.300000e+00  0  160 0  1.000000e+02 -2.000000e+01 1.000000e+01   0.000000e+00 1.000000e-02  1.000000e+00  
-6.000000e-01  -2.000000e+00  -3.300000e+00  0  162 0  9.998497e+01 -1.994736e+01 1.000003e+01   0.000000e+00 1.000000e-02  1.000000e+00  
-4.000000e-01  -2.000000e+00  -3.300000e+00  0  163 0  9.997901e+01 -1.992658e+01 1.000004e+01   0.000000e+00 1.000000e-02  1.000000e+00  
-2.000000e-01  -2.000000e+00  -3.300000e+00  0  164 0  9.997475e+01 -1.991170e+01 1.000005e+01   0.000000e+00 1.000000e-02  1.000000e+00  
0.000000e+00  -2.000000e+00  -3.300000e+00  0  165 0  9.997245e+01 -1.990356e+01 1.000005e+01   0.000000e+00 1.000000e-02  1.000000e+00  
-8.000000e-01  -1.750000e+00  -3.300000e+00  0  169 0  9.998850e+01 -1.996902e+01 1.000002e+01   0.000000e+00 1.000000e-02  1.000000e+00  
-1.000000e+00  -1.750000e+00  -3.300000e+00  0  168 0  1.000000e+02 -2.000000e+01 1.000000e+01   0.000000e+00 1.000000e-02  1.000000e+00  
-6.000000e-01  -1.750000e+00  -3.300000e+00  0  170 0  9.997794e+01 -1.994066e+01 1.000003e+01   0.000000e+00 1.000000e-02  1.000000e+00  
-4.000000e-01  -1.750000e+00  -3.300000e+00  0  171 0  9.996921e+01 -1.991722e+01 1.000004e+01   0.000000e+00 1.000000e-02  1.000000e+00  
-2.000000e-01  -1.750000e+00  -3.300000e+00  0  172 0  9.996298e+01 -1.990045e+01 1.000005e+01   0.000000e+00 1.000000e-02  1.000000e+00  
0.000000e+00  -1.750000e+00  -3.300000e+00  0  173 0  9.995960e+01 -1.989128e+01 1.000005e+01   0.000000e+00 1.000000e-02  1.000000e+00  
-1.000000e+00  -3.000000e+00  -2.950000e+00  0  192 0  1.000000e+02 -2.000000e+01 1.000000e+01   0.000000e+00 1.000000e-02  1.000000e+00  
-8.000000e-01  -3.000000e+00  -2.950000e+00  0  193 0  1.000000e+02 -2.000000e+01 1.000000e+01   0.000000e+00 1.000000e-02  1.000000e+00  
-8.000000e-01  -2.750000e+00  -2.950000e+00  0  201 0  9.999777e+01 -1.998818e+01 1.000001e+01   0.000000e+00 1.000000e-02  1.000000e+00  
-1.000000e+00  -2.750000e+00  -2.950000e+00  0  200 0  1.000000e+02 -2.000000e+01 1.000000e+01   0.000000e+00 1.000000e-02  1.000000e+00  
-6.000000e-01  -3.000000e+00  -2.950000e+00  0  194 0  1.000000e+02 -2.000000e+01 1.000000e+01   0.000000e+00 1.000000e-02  1.000000e+00  
-6.000000e-01  -2.750000e+00  -2.950000e+00  0  202 0  9.999570e+01 -1.997735e+01 1.000002e+01   0.000000e+00 1.000000e-02  1.000000e+00  
-4.000000e-01  -3.000000e+00  -2.950000e+00  0  195 0  1.000000e+02 -2.000000e+01 1.000000e+01   0.000000e+00 1.000000e-02  1.000000e+00  
-4.000000e-01  -2.750000e+00  -2.950000e+00  0  203 0  9.999398e+01 -1.996840e+01 1.000002e+01   0.000000e+00 1.000000e-02  1.000000e+00  
-2.000000e-01  -3.000000e+00  -2.950000e+00  0  196 0  1.000000e+02 -2.000000e+01 1.000000e+01   0.000000e+00 1.000000e-02  1.000000e+00  
-2.000000e-01  -2.750000e+00  -2.950000e+00  0  204 0  9.999275e+01 -1.996200e+01 1.000003e+01   0.000000e+00 1.000000e-02  1.000000e+00  
0.000000e+00  -3.000000e+00  -2.950000e+00  0  197 0  1.000000e+02 -2.000000e+01 1.000000e+01   0.000000e+00 1.000000e-02  1.000000e+00  
0.000000e+00  -2.750000e+00  -2.950000e+00  0  205 0  9.999209e+01 -1.995850e+01 1.000003e+01   0.000000e+00 1.000000e-02  1.000000e+00  
-8.000000e-01  -2.500000e+00  -2.950000e+00  0  209 0  9.999505e+01 -1.997705e+01 1.000002e+01   0.000000e+00 1.000000e-02  1.000000e+00  
-1.000000e+00  -2.500000e+00  -2.950000e+00  0  208 0  1.000000e+02 -2.000000e+01 1.000000e+01   0.000000e+00 1.000000e-02  1.000000e+00  
-6.000000e-01  -2.500000e+00  -2.950000e+00  0  210 0  9.999049e+01 -1.995604e+01 1.000003e+01   0.000000e+00 1.000000e-02  1.000000e+00  
-4.000000e-01  -2.500000e+00  -2.950000e+00  0  211 0  9.998670e+01 -1.993868e+01 1.000004e+01   0.000000e+00 1.000000e-02  1.000000e+00  
-2.000000e-01  -2.500000e+00  -2.950000e+00  0  212 0  9.998400e+01 -1.992625e+01 1.000005e+01   0.000000e+00 1.000000e-02  1.000000e+00  
0.000000e+00  -2.500000e+00  -2.950000e+00  0  213 0  9.998255e+01 -1.991946e+01 1.000005e+01   0.000000e+00 1.000000e-02  1.000000e+00  
-8.000000e-01  -2.250000e+00  -2.950000e+00  0  217 0  9.999145e+01 -1.996732e+01 1.000002e+01   0.000000e+00 1.000000e-02  1.000000e+00  
-1.000000e+00  -2.250000e+00  -2.950000e+00  0  216 0  1.000000e+02 -2.000000e+01 1.000000e+01   0.000000e+00 1.000000e-02  1.000000e+00  
-6.000000e-01  -2.250000e+00  -2.950000e+00  0  218 0  9.998359e+01 -1.993740e+01 1.000004e+01   0.000000e+00 1.000000e-02  1.000000e+00  
-4.000000e-01  -2.250000e+00  -2.950000e+00  0  219 0  9.997709e+01 -1.991268e+01 1.000005e+01   0.000000e+00 1.000000e-02  1.000000e+00  
-2.000000e-01  -2.250000e+00  -2.950000e+00  0  220 0  9.997244e+01 -1.989499e+01 1.000006e+01   0.000000e+00 1.000000e-02  1.000000e+00  
0.000000e+00  -2.250000e+00  -2.950000e+00  0  221 0  9.996993e+01 -1.988531e+01 1.000006e+01   0.000000e+00 1.000000e-02  1.000000e+00  
-8.000000e-01  -2.000000e+00  -2.950000e+00  0  225 0  9.998664e+01 -1.995963e+01 1.000002e+01   0.000000e+00 1.000000e-02  1.000000e+00  
-1.000000e+00  -2.000000e+00  -2.950000e+00  0  224 0  1.000000e+02 -2.000000e+01 1.000000e+01   0.000000e+00 1.000000e-02  1.000000e+00  
-6.000000e-01  -2.000000e+00  -2.950000e+00  0  226 0  9.997437e+01 -1.992266e+01 1.000004e+01   0.000000e+00 1.000000e-02  1.000000e+00  
-4.000000e-01  -2.000000e+00  -2.950000e+00  0  227 0  9.996423e+01 -1.989212e+01 1.000005e+01   0.000000e+00 1.000000e-02  1.000000e+00  
-2.000000e-01  -2.000000e+00  -2.950000e+00  0  228 0  9.995699e+01 -1.987026e+01 1.000006e+01   0.000000e+00 1.000000e-02  1.000000e+00  
0.000000e+00  -2.000000e+00  -2.950000e+00  0  229 0  9.995307e+01 -1.985830e+01 1.000007e+01   0.000000e+00 1.000000e-02  1.000000e+00  
-8.000000e-01  -1.750000e+00  -2.950000e+00  0  233 0  9.998042e+01 -1.995449e+01 1.000002e+01   0.000000e+00 1.000000e-02  1.000000e+00  
-1.000000e+00  -1.750000e+00  -2.950000e+00  0  232 0  1.000000e+02 -2.000000e+01 1.000000e+01   0.000000e+00 1.000000e-02  1.000000e+00  
-6.000000e-01  -1.750000e+00  -2.950000e+00  0  234 0  9.996247e+01 -1.991281e+01 1.000003e+01   0.000000e+00 1.000000e-02  1.000000e+00  
-4.000000e-01  -1.750000e+00  -2.950000e+00  0  235 0  9.994763e+01 -1.987838e+01 1.000004e+01   0.000000e+00 1.000000e-02  1.000000e+00  
-2.000000e-01  -1.750000e+00  -2.950000e+00  0  236 0  9.993703e+01 -1.985374e+01 1.000005e+01   0.000000e+00 1.000000e-02  1.000000e+00  
0.000000e+00  -1.750000e+00  -2.950000e+00  0  237 0  9.993129e+01 -1.984026e+01 1.000006e+01   0.000000e+00 1.000000e-02  1.000000e+00  
-1.000000e+00  -3.000000e+00  -2.600000e+00  0  256 0  1.000000e+02 -2.000000e+01 1.000000e+01   0.000000e+00 1.000000e-02  1.000000e+00  
-8.000000e-01  -3.000000e+00  -2.600000e+00  0  257 0  1.000000e+02 -2.000000e+01 1.000000e+01   0.000000e+00 1.000000e-02  1.000000e+00  
-8.000000e-01  -2.750000e+00  -2.600000e+00  0  265 0  9.999652e+01 -1.998480e+01 1.000001e+01   0.000000e+00 1.000000e-02  1.000000e+00  
-1.000000e+00  -2.750000e+00  -2.600000e+00  0  264 0  1.000000e+02 -2.000000e+01 1.000000e+01   0.000000e+00 1.000000e-02  1.000000e+00  
-6.000000e-01  -3.000000e+00  -2.600000e+00  0  258 0  1.000000e+02 -2.000000e+01 1.000000e+01   0.000000e+00 1.000000e-02  1.000000e+00  
-6.000000e-01  -2.750000e+00  -2.600000e+00  0  266 0  9.999331e+01 -1.997087e+01 1.000002e+01   0.000000e+00 1.000000e-02  1.000000e+00  
-4.000000e-01  -3.000000e+00  -2.600000e+00  0  259 0  1.000000e+02 -2.000000e+01 1.000000e+01   0.000000e+00 1.000000e-02  1.000000e+00  
-4.000000e-01  -2.750000e+00  -2.600000e+00  0  267 0  9.999066e+01 -1.995937e+01 1.000003e+01   0.000000e+00 1.000000e-02  1.000000e+00  
-2.000000e-01  -3.000000e+00  -2.600000e+00  0  260 0  1.000000e+02 -2.000000e+01 1.000000e+01   0.000000e+00 1.000000e-02  1.000000e+00  
-2.000000e-01  -2.750000e+00  -2.600000e+00  0  268 0  9.998876e+01 -1.995113e+01 1.000003e+01   0.000000e+00 1.000000e-02  1.000000e+00  
0.000000e+00  -3.000000e+00  -2.600000e+00  0  261 0  1.000000e+02 -2.000000e+01 1.000000e+01   0.000000e+00 1.000000e-02  1.000000e+00  
0.000000e+00  -2.750000e+00  -2.600000e+00  0  269 0  9.998773e+01 -1.994663e+01 1.000003e+01   0.000000e+00 1.000000e-02  1.000000e+00  
-8.000000e-01  -2.500000e+00  -2.600000e+00  0  273 0  9.999233e+01 -1.997049e+01 1.000002e+01   0.000000e+00 1.000000e-02  1.000000e+00  
-1.000000e+00  -2.500000e+00  -2.600000e+00  0  272 0  1.000000e+02 -2.000000e+01 1.000000e+01   0.000000e+00 1.000000e-02  1.000000e+00  
-6.000000e-01  -2.500000e+00  -2.600000e+00  0  274 0  9.998527e+01 -1.994347e+01 1.000003e+01   0.000000e+00 1.000000e-02  1.000000e+00  
-4.000000e-01  -2.500000e+00  -2.600000e+00  0  275 0  9.997943e+01 -1.992114e+01 1.000004e+01   0.000000e+00 1.000000e-02  1.000000e+00  
-2.000000e-01  -2.500000e+00  -2.600000e+00  0  276 0  9.997526e+01 -1.990516e+01 1.000005e+01   0.000000e+00 1.000000e-02  1.000000e+00  
0.000000e+00  -2.500000e+00  -2.600000e+00  0  277 0  9.997301e+01 -1.989642e+01 1.000006e+01   0.000000e+00 1.000000e-02  1.000000e+00  
-8.000000e-01  -2.250000e+00  -2.600000e+00  0  281 0  9.998679e+01 -1.995798e+01 1.000002e+01   0.000000e+00 1.000000e-02  1.000000e+00  
-1.000000e+00  -2.250000e+00  -2.600000e+00  0  280 0  1.000000e+02 -2.000000e+01 1.000000e+01   0.000000e+00 1.000000e-02  1.000000e+00  
-6.000000e-01  -2.250000e+00  -2.600000e+00  0  282 0  9.997466e+01 -1.991950e+01 1.000004e+01   0.000000e+00 1.000000e-02  1.000000e+00  
-4.000000e-01  -2.250000e+00  -2.600000e+00  0  283 0  9.996464e+01 -1.988771e+01 1.000005e+01   0.000000e+00 1.000000e-02  1.000000e+00  
-2.000000e-01  -2.250000e+00  -2.600000e+00  0  284 0  9.995748e+01 -1.986496e+01 1.000006e+01   0.000000e+00 1.000000e-02  1.000000e+00  
0.000000e+00  -2.250000e+00  -2.600000e+00  0  285 0  9.995361e+01 -1.985251e+01 1.000007e+01   0.000000e+00 1.000000e-02  1.000000e+00  
-8.000000e-01  -2.000000e+00  -2.600000e+00  0  289 0  9.997941e+01 -1.994809e+01 1.000002e+01   0.000000e+00 1.000000e-02  1.000000e+00  
-1.000000e+00  -2.000000e+00  -2.600000e+00  0  288 0  1.000000e+02 -2.000000e+01 1.000000e+01   0.000000e+00 1.000000e-02  1.000000e+00  
-6.000000e-01  -2.000000e+00  -2.600000e+00  0  290 0  9.996052e+01 -1.990055e+01 1.000004e+01   0.000000e+00 1.000000e-02  1.000000e+00  
-4.000000e-01  -2.000000e+00  -2.600000e+00  0  291 0  9.994491e+01 -1.986128e+01 1.000005e+01   0.000000e+00 1.000000e-02  1.000000e+00  
-2.000000e-01  -2.000000e+00  -2.600000e+00  0  292 0  9.993377e+01 -1.983317e+01 1.000006e+01   0.000000e+00 1.000000e-02  1.000000e+00  
0.000000e+00  -2.000000e+00  -2.600000e+00  0  293 0  9.992773e+01 -1.981779e+01 1.000006e+01   0.000000e+00 1.000000e-02  1.000000e+00  
-8.000000e-01  -1.750000e+00  -2.600000e+00  0  297 0  9.996988e+01 -1.994148e+01 1.000002e+01   0.000000e+00 1.000000e-02  1.000000e+00  
-1.000000e+00  -1.750000e+00  -2.600000e+00  0  296 0  1.000000e+02 -2.000000e+01 1.000000e+01   0.000000e+00 1.000000e-02  1.000000e+00  
-6.000000e-01  -1.750000e+00  -2.600000e+00  0  298 0  9.994228e+01 -1.988789e+01 1.000003e+01   0.000000e+00 1.000000e-02  1.000000e+00  
-4.000000e-01  -1.750000e+00  -2.600000e+00  0  299 0  9.991947e+01 -1.984361e+01 1.000003e+01   0.000000e+00 1.000000e-02  1.000000e+00  
-2.000000e-01  -1.750000e+00  -2.600000e+00  0  300 0  9.990319e+01 -1.981193e+01 1.000004e+01   0.000000e+00 1.000000e-02  1.000000e+00  
0.000000e+00  -1.750000e+00  -2.600000e+00  0  301 0  9.989435e+01 -1.979459e+01 1.000004e+01   0.000000e+00 1.000000e-02  1.000000e+00  
-1.000000e+00  -3.000000e+00  -2.250000e+00  0  320 0  1.000000e+02 -2.000000e+01 1.000000e+01   0.000000e+00 1.000000e-02  1.000000e+00  
-8.000000e-01  -3.000000e+00  -2.250000e+00  0  321 0  1.000000e+02 -2.000000e+01 1.000000e+01   0.000000e+00 1.000000e-02  1.000000e+00  
-8.000000e-01  -2.750000e+00  -2.250000e+00  0  329 0  9.999495e+01 -1.998205e+01 1.000001e+01   0.000000e+00 1.000000e-02  1.000000e+00  
-1.000000e+00  -2.750000e+00  -2.250000e+00  0  328 0  1.000000e+02 -2.000000e+01 1.000000e+01   0.000000e+00 1.000000e-02  1.000000e+00  
-6.000000e-01  -3.000000e+00  -2.250000e+00  0  322 0  1.000000e+02 -2.000000e+01 1.000000e+01   0.000000e+00 1.000000e-02  1.000000e+00  
-6.000000e-01  -2.750000e+00  -2.250000e+00  0  330 0  9.999030e+01 -1.996561e+01 1.000002e+01   0.000000e+00 1.000000e-02  1.000000e+00  
-4.000000e-01  -3.000000e+00  -2.250000e+00  0  323 0  1.000000e+02 -2.000000e+01 1.000000e+01   0.000000e+00 1.000000e-02  1.000000e+00  
-4.000000e-01  -2.750000e+00  -2.250000e+00  0  331 0  9.998646e+01 -1.995203e+01 1.000003e+01   0.000000e+00 1.000000e-02  1.000000e+00  
-2.000000e-01  -3.000000e+00  -2.250000e+00  0  324 0  1.000000e+02 -2.000000e+01 1.000000e+01   0.000000e+00 1.000000e-02  1.000000e+00  
-2.000000e-01  -2.750000e+00  -2.250000e+00  0  332 0  9.998371e+01 -1.994230e+01 1.000003e+01   0.000000e+00 1.000000e-02  1.000000e+00  
0.000000e+00  -3.000000e+00  -2.250000e+00  0  325 0  1.000000e+02 -2.000000e+01 1.000000e+01   0.000000e+00 1.000000e-02  1.000000e+00  
0.000000e+00  -2.750000e+00  -2.250000e+00  0  333 0  9.998223e+01 -1.993698e+01 1.000003e+01   0.000000e+00 1.000000e-02  1.000000e+00  
-8.000000e-01  -2.500000e+00  -2.250000e+00  0  337 0  9.998889e+01 -1.996516e+01 1.000002e+01   0.000000e+00 1.000000e-02  1.000000e+00  
-1.000000e+00  -2.500000e+00  -2.250000e+00  0  336 0  1.000000e+02 -2.000000e+01 1.000000e+01   0.000000e+00 1.000000e-02  1.000000e+00  
-6.000000e-01  -2.500000e+00  -2.250000e+00  0  338 0  9.997868e+01 -1.993326e+01 1.000003e+01   0.000000e+00 1.000000e-02  1.000000e+00  
-4.000000e-01  -2.500000e+00  -2.250000e+00  0  339 0  9.997024e+01 -1.990690e+01 1.000004e+01   0.000000e+00 1.000000e-02  1.000000e+00  
-2.000000e-01  -2.500000e+00  -2.250000e+00  0  340 0  9.996421e+01 -1.988803e+01 1.000005e+01   0.000000e+00 1.000000e-02  1.000000e+00  
0.000000e+00  -2.500000e+00  -2.250000e+00  0  341 0  9.996095e+01 -1.987771e+01 1.000005e+01   0.000000e+00 1.000000e-02  1.000000e+00  
-8.000000e-01  -2.250000e+00  -2.250000e+00  0  345 0  9.998091e+01 -1.995039e+01 1.000002e+01   0.000000e+00 1.000000e-02  1.000000e+00  
-1.000000e+00  -2.250000e+00  -2.250000e+00  0  344 0  1.000000e+02 -2.000000e+01 1.000000e+01   0.000000e+00 1.000000e-02  1.000000e+00  
-6.000000e-01  -2.250000e+00  -2.250000e+00  0  346 0  9.996340e+01 -1.990497e+01 1.000004e+01   0.000000e+00 1.000000e-02  1.000000e+00  
-4.000000e-01  -2.250000e+00  -2.250000e+00  0  347 0  9.994893e+01 -1.986743e+01 1.000005e+01   0.000000e+00 1.000000e-02  1.000000e+00  
-2.000000e-01  -2.250000e+00  -2.250000e+00  0  348 0  9.993860e+01 -1.984057e+01 1.000006e+01   0.000000e+00 1.000000e-02  1.000000e+00  
0.000000e+00  -2.250000e+00  -2.250000e+00  0  349 0  9.993300e+01 -1.982587e+01 1.000006e+01   0.000000e+00 1.000000e-02  1.000000e+00  
-8.000000e-01  -2.000000e+00  -2.250000e+00  0  353 0  9.997029e+01 -1.993871e+01 1.000002e+01   0.000000e+00 1.000000e-02  1.000000e+00  
-1.000000e+00  -2.000000e+00  -2.250000e+00  0  352 0  1.000000e+02 -2.000000e+01 1.000000e+01   0.000000e+00 1.000000e-02  1.000000e+00  
-6.000000e-01  -2.000000e+00  -2.250000e+00  0  354 0  9.994306e+01 -1.988259e+01 1.000003e+01   0.000000e+00 1.000000e-02  1.000000e+00  
-4.000000e-01  -2.000000e+00  -2.250000e+00  0  355 0  9.992057e+01 -1.983623e+01 1.000004e+01   0.000000e+00 1.000000e-02  1.000000e+00  
-2.000000e-01  -2.000000e+00  -2.250000e+00  0  356 0  9.990450e+01 -1.980304e+01 1.000004e+01   0.000000e+00 1.000000e-02  1.000000e+00  
0.000000e+00  -2.000000e+00  -2.250000e+00  0  357 0  9.989578e+01 -1.978488e+01 1.000005e+01   0.000000e+00 1.000000e-02  1.000000e+00  
-8.000000e-01  -1.750000e+00  -2.250000e+00  0  361 0  9.995662e+01 -1.993091e+01 1.000000e+01   0.000000e+00 1.000000e-02  1.000000e+00  
-1.000000e+00  -1.750000e+00  -2.250000e+00  0  360 0  1.000000e+02 -2.000000e+01 1.000000e+01   0.000000e+00 1.000000e-02  1.000000e+00  
-6.000000e-01  -1.750000e+00  -2.250000e+00  0  362 0  9.991687e+01 -1.986764e+01 1.000000e+01   0.000000e+00 1.000000e-02  1.000000e+00  
-4.000000e-01  -1.750000e+00  -2.250000e+00  0  363 0  9.988404e+01 -1.981537e+01 1.000000e+01   0.000000e+00 1.000000e-02  1.000000e+00  