VARIABLES="X", "Y", "Z", "Maximum Refinment Level", "Temp_ID", "Thread","Ex (corner node)","Ey (corner node)","Ez (corner node)","Bx (center node)","By (center node)","Bz (center node)", "Local Time Step" , "log10(Local Particle Weight)" 
ZONE N=4913, E=4096, DATAPACKING=POINT, ZONETYPE=FEBRICK
-2.000000e+00  -2.000000e+00  -2.000000e+00  0  1064 0  -3.032753e-05 4.415031e-06 -3.430187e-05   -9.267372e-11 1.504302e-10 2.467518e-10 2.000000e-01  6.250000e-02  
-1.750000e+00  -2.000000e+00  -2.000000e+00  0  1065 0  1.018186e+01 6.709090e-06 6.986160e-07   8.025704e-10 -2.993269e-07 3.320496e-06 2.000000e-01  6.250000e-02  
-1.750000e+00  -1.750000e+00  -2.000000e+00  0  1076 0  -3.341388e-01 -3.341344e-01 -1.847441e-05   1.417275e-07 -1.340613e-07 9.502307e-07 2.000000e-01  6.250000e-02  
-2.000000e+00  -1.750000e+00  -2.000000e+00  0  1075 0  3.986818e-06 1.018187e+01 6.089969e-07   2.816484e-07 -5.754973e-09 -1.968836e-06 2.000000e-01  6.250000e-02  
-2.000000e+00  -2.000000e+00  -1.750000e+00  0  1185 0  4.016364e-06 6.657644e-06 1.018186e+01   -3.321137e-06 1.984228e-06 3.641891e-09 2.000000e-01  6.250000e-02  
-1.750000e+00  -2.000000e+00  -1.750000e+00  0  1186 0  -3.341352e-01 -2.250694e-05 -3.341290e-01   -1.806886e-06 5.772978e-07 1.805279e-06 2.000000e-01  6.250000e-02  
-1.750000e+00  -1.750000e+00  -1.750000e+00  0  1197 0  1.643170e+00 1.643178e+00 1.643183e+00   -8.726915e-07 4.003576e-07 4.750827e-07 2.000000e-01  6.250000e-02  
-2.000000e+00  -1.750000e+00  -1.750000e+00  0  1196 0  -2.904074e-05 -3.341257e-01 -3.341239e-01   -1.525306e-06 1.043542e-06 -1.051440e-06 2.000000e-01  6.250000e-02  
-1.500000e+00  -2.000000e+00  -2.000000e+00  0  1066 0  -8.860894e+00 -1.169683e-05 -9.606511e-06   9.179132e-10 -8.793859e-07 1.471652e-06 2.000000e-01  6.250000e-02  
-1.500000e+00  -1.750000e+00  -2.000000e+00  0  1077 0  1.519630e+01 -5.917863e+00 -1.642634e-06   -1.974786e-07 3.865318e-07 -1.647542e+00 2.000000e-01  6.250000e-02  
-1.500000e+00  -2.000000e+00  -1.750000e+00  0  1187 0  1.519629e+01 -2.058788e-06 -5.917863e+00   8.026744e-08 1.647542e+00 -2.673122e-07 2.000000e-01  6.250000e-02  
-1.500000e+00  -1.750000e+00  -1.750000e+00  0  1198 0  9.611964e-01 -1.626667e+01 -1.626667e+01   -1.352144e-07 2.103218e+00 -2.103218e+00 2.000000e-01  6.250000e-02  
-1.250000e+00  -2.000000e+00  -2.000000e+00  0  2099 0  -2.694818e+01 -5.072908e-07 -3.531242e-07   -1.258379e-10 -9.847360e-07 1.235086e-06 2.000000e-01  6.250000e-02  
-1.250000e+00  -1.750000e+00  -2.000000e+00  0  2107 0  5.823753e+00 4.798323e-01 1.373253e-06   -1.230084e-07 -6.618409e-07 -1.121460e-01 2.000000e-01  6.250000e-02  
-1.250000e+00  -2.000000e+00  -1.750000e+00  0  2187 0  5.823753e+00 1.729301e-06 4.798326e-01   1.410733e-07 1.121460e-01 8.263520e-07 2.000000e-01  6.250000e-02  
-1.250000e+00  -1.750000e+00  -1.750000e+00  0  2195 0  3.261589e+00 -1.479633e+01 -1.479632e+01   -1.574612e-08 -7.847240e-01 7.847241e-01 2.000000e-01  6.250000e-02  
-1.000000e+00  -2.000000e+00  -2.000000e+00  0  2100 0  3.900640e+00 -1.177818e-06 -9.223694e-07   -2.580610e-10 -2.853095e-07 3.552607e-07 2.000000e-01  6.250000e-02  
-1.000000e+00  -1.750000e+00  -2.000000e+00  0  2108 0  1.692471e+01 -1.503058e+01 -6.273001e-07   -3.187142e-09 -2.845558e-07 2.099066e+00 2.000000e-01  6.250000e-02  
-1.000000e+00  -2.000000e+00  -1.750000e+00  0  2188 0  1.692471e+01 -8.081760e-07 -1.503058e+01   -2.075901e-09 -2.099066e+00 3.520935e-07 2.000000e-01  6.250000e-02  
-1.000000e+00  -1.750000e+00  -1.750000e+00  0  2196 0  8.244589e+00 -4.281530e+00 -4.281530e+00   -2.136124e-09 -1.749940e+00 1.749940e+00 2.000000e-01  6.250000e-02  
-7.500000e-01  -2.000000e+00  -2.000000e+00  0  2101 0  -1.931973e+01 7.589458e-07 6.284695e-07   -5.840973e-10 -2.198099e-07 2.712696e-07 2.000000e-01  6.250000e-02  
-7.500000e-01  -1.750000e+00  -2.000000e+00  0  2109 0  -3.975952e+00 -1.816196e+01 -5.278415e-07   -7.309525e-08 -1.366068e-07 1.615961e+00 2.000000e-01  6.250000e-02  
-7.500000e-01  -2.000000e+00  -1.750000e+00  0  2189 0  -3.975952e+00 -6.048682e-07 -1.816196e+01   9.002891e-08 -1.615961e+00 1.674142e-07 2.000000e-01  6.250000e-02  
-7.500000e-01  -1.750000e+00  -1.750000e+00  0  2197 0  -1.818797e+01 -4.426290e+00 -4.426290e+00   -6.415985e-09 -1.001605e+00 1.001605e+00 2.000000e-01  6.250000e-02  
-5.000000e-01  -2.000000e+00  -2.000000e+00  0  2102 0  -1.470719e+01 1.730513e-06 1.392601e-06   -6.800984e-10 -6.007249e-08 6.449156e-08 2.000000e-01  6.250000e-02  
-5.000000e-01  -1.750000e+00  -2.000000e+00  0  2110 0  -4.206524e+00 -3.391853e+00 -1.319023e-06   -7.825236e-09 -5.987876e-09 8.041649e-01 2.000000e-01  6.250000e-02  
-5.000000e-01  -2.000000e+00  -1.750000e+00  0  2190 0  -4.206525e+00 -1.678340e-06 -3.391853e+00   1.149679e-08 -8.041649e-01 1.823255e-09 2.000000e-01  6.250000e-02  
-5.000000e-01  -1.750000e+00  -1.750000e+00  0  2198 0  -2.350761e+00 -1.516257e+01 -1.516257e+01   -3.693920e-09 -7.102940e-01 7.102940e-01 2.000000e-01  6.250000e-02  
-2.500000e-01  -2.000000e+00  -2.000000e+00  0  2103 0  3.891981e+00 -4.418929e-07 -3.575152e-07   -2.789826e-10 -5.862980e-08 7.124488e-08 2.000000e-01  6.250000e-02  
-2.500000e-01  -1.750000e+00  -2.000000e+00  0  2111 0  -1.284889e-01 -1.724758e+01 3.327094e-07   1.554854e-08 -2.648952e-08 3.121933e-01 2.000000e-01  6.250000e-02  
-2.500000e-01  -2.000000e+00  -1.750000e+00  0  2191 0  -1.284890e-01 4.198552e-07 -1.724758e+01   -1.785750e-08 -3.121932e-01 3.156765e-08 2.000000e-01  6.250000e-02  
-2.500000e-01  -1.750000e+00  -1.750000e+00  0  2199 0  2.098703e+01 -2.328965e-01 -2.328963e-01   -1.609440e-09 -3.877694e-01 3.877694e-01 2.000000e-01  6.250000e-02  
0.000000e+00  -2.000000e+00  -2.000000e+00  0  2104 0  -3.160377e-06 -6.730797e-07 -5.462643e-07   -1.224098e-10 1.073543e-09 3.486494e-11 2.000000e-01  6.250000e-02  
0.000000e+00  -1.750000e+00  -2.000000e+00  0  2112 0  2.241523e-06 -2.319727e+00 2.284821e-07   2.233370e-08 1.184458e-09 -8.881458e-07 2.000000e-01  6.250000e-02  
0.000000e+00  -2.000000e+00  -1.750000e+00  0  2192 0  2.235889e-06 2.732137e-07 -2.319727e+00   -2.685828e-08 8.883858e-07 -4.665841e-10 2.000000e-01  6.250000e-02  
0.000000e+00  -1.750000e+00  -1.750000e+00  0  2200 0  -6.249165e-06 -1.764735e+01 -1.764735e+01   5.445988e-09 7.042916e-07 -7.038755e-07 2.000000e-01  6.250000e-02  
-1.750000e+00  -1.500000e+00  -2.000000e+00  0  1087 0  -5.917864e+00 1.519630e+01 -1.686312e-06   -3.889479e-07 2.010908e-07 1.647543e+00 2.000000e-01  6.250000e-02  
-2.000000e+00  -1.500000e+00  -2.000000e+00  0  1086 0  -1.509931e-05 -8.860879e+00 -9.614363e-06   8.740866e-07 -6.950229e-09 -1.590083e-06 2.000000e-01  6.250000e-02  
-1.750000e+00  -1.500000e+00  -1.750000e+00  0  1208 0  -1.626667e+01 9.611924e-01 -1.626667e+01   -2.103219e+00 1.555590e-07 2.103218e+00 2.000000e-01  6.250000e-02  
-2.000000e+00  -1.500000e+00  -1.750000e+00  0  1207 0  -2.654702e-06 1.519630e+01 -5.917864e+00   -1.647543e+00 -2.347482e-07 4.925420e-07 2.000000e-01  6.250000e-02  
-1.500000e+00  -1.500000e+00  -2.000000e+00  0  1088 0  2.292442e+00 2.292442e+00 -2.007768e-07   -7.756856e-07 7.795800e-07 1.053722e-07 2.000000e-01  6.250000e-02  
-1.500000e+00  -1.500000e+00  -1.750000e+00  0  1209 0  5.873092e+00 5.873093e+00 -1.848965e+01   -2.169620e+00 2.169620e+00 -1.295512e-07 2.000000e-01  6.250000e-02  
-1.250000e+00  -1.500000e+00  -2.000000e+00  0  2115 0  -6.933286e+00 5.954004e+00 -1.598228e-06   1.487409e-07 -2.714699e-07 -8.810847e-01 2.000000e-01  6.250000e-02  
-1.250000e+00  -1.500000e+00  -1.750000e+00  0  2203 0  -2.896815e+00 1.006052e+01 -1.320086e+01   -1.745500e+00 -1.292825e+00 -1.304701e+00 2.000000e-01  6.250000e-02  
-1.000000e+00  -1.500000e+00  -2.000000e+00  0  2116 0  4.350983e+00 1.328762e+01 4.733276e-08   8.919948e-08 -2.719837e-07 9.878878e-01 2.000000e-01  6.250000e-02  
-1.000000e+00  -1.500000e+00  -1.750000e+00  0  2204 0  2.281460e-01 9.479586e+00 -4.056757e+00   -7.960004e-01 -1.283465e+00 -4.411407e-02 2.000000e-01  6.250000e-02  
-7.500000e-01  -1.500000e+00  -2.000000e+00  0  2117 0  -6.452037e+00 2.655318e+00 2.886433e-07   8.726456e-09 -9.352974e-09 -1.766332e-01 2.000000e-01  6.250000e-02  
-7.500000e-01  -1.500000e+00  -1.750000e+00  0  2205 0  -1.451411e+01 2.148396e+01 -1.068424e+01   -1.745701e-01 -7.228582e-01 4.521982e-01 2.000000e-01  6.250000e-02  
-5.000000e-01  -1.500000e+00  -2.000000e+00  0  2118 0  -4.334524e+00 9.871998e+00 5.256727e-07   2.411705e-08 2.189344e-08 -9.444696e-01 2.000000e-01  6.250000e-02  
-5.000000e-01  -1.500000e+00  -1.750000e+00  0  2206 0  4.201689e+00 2.171561e+01 -1.287935e+01   -6.069295e-01 -7.124294e-01 -7.093272e-01 2.000000e-01  6.250000e-02  
-2.500000e-01  -1.500000e+00  -2.000000e+00  0  2119 0  1.030705e+00 7.617640e+00 -7.926095e-08   -1.128036e-08 9.064804e-09 -7.788981e-01 2.000000e-01  6.250000e-02  
-2.500000e-01  -1.500000e+00  -1.750000e+00  0  2207 0  -2.922483e+00 1.615727e+01 -4.686090e+00   -6.473482e-01 -4.559081e-01 -8.850531e-01 2.000000e-01  6.250000e-02  
0.000000e+00  -1.500000e+00  -2.000000e+00  0  2120 0  -3.067262e-07 7.656199e+00 -1.667279e-07   -2.706437e-08 6.710942e-10 -3.641981e-07 2.000000e-01  6.250000e-02  
0.000000e+00  -1.500000e+00  -1.750000e+00  0  2208 0  9.036879e-07 2.251002e+01 -1.321126e+01   -5.486306e-01 2.249496e-07 -2.729538e-07 2.000000e-01  6.250000e-02  
-1.750000e+00  -1.250000e+00  -2.000000e+00  0  3012 0  4.798341e-01 5.823756e+00 1.368514e-06   6.632503e-07 1.211743e-07 1.121460e-01 2.000000e-01  6.250000e-02  
-2.000000e+00  -1.250000e+00  -2.000000e+00  0  3011 0  -6.052701e-07 -2.694820e+01 -3.233680e-07   9.873286e-07 -1.636209e-09 -1.569912e-06 2.000000e-01  6.250000e-02  
-1.750000e+00  -1.250000e+00  -1.750000e+00  0  3100 0  -1.479633e+01 3.261590e+00 -1.479632e+01   7.847238e-01 2.114586e-08 -7.847240e-01 2.000000e-01  6.250000e-02  
-2.000000e+00  -1.250000e+00  -1.750000e+00  0  3099 0  2.207064e-06 5.823756e+00 4.798349e-01   -1.121459e-01 -1.854881e-07 -1.050345e-06 2.000000e-01  6.250000e-02  
-1.500000e+00  -1.250000e+00  -2.000000e+00  0  3013 0  5.954004e+00 -6.933287e+00 -1.590048e-06   2.707537e-07 -1.450544e-07 8.810848e-01 2.000000e-01  6.250000e-02  
-1.500000e+00  -1.250000e+00  -1.750000e+00  0  3101 0  1.006052e+01 -2.896816e+00 -1.320087e+01   1.292825e+00 1.745500e+00 1.304701e+00 2.000000e-01  6.250000e-02  
-1.250000e+00  -1.250000e+00  -2.000000e+00  0  3779 0  -2.077851e+00 -2.077851e+00 1.972320e-07   2.524096e-07 -2.509129e-07 -7.687721e-08 2.000000e-01  6.250000e-02  
-1.250000e+00  -1.250000e+00  -1.750000e+00  0  3843 0  -4.502661e+00 -4.502661e+00 -1.139270e+01   4.393742e-01 -4.393742e-01 -4.581470e-08 2.000000e-01  6.250000e-02  
-1.000000e+00  -1.250000e+00  -2.000000e+00  0  3780 0  7.005698e+00 -9.606382e-01 -1.661736e-07   1.329835e-07 -1.732060e-07 -1.799078e+00 2.000000e-01  6.250000e-02  
-1.000000e+00  -1.250000e+00  -1.750000e+00  0  3844 0  4.690443e+00 -5.145829e+00 -1.500599e+01   3.967730e-01 -8.007050e-01 -2.586570e+00 2.000000e-01  6.250000e-02  
-7.500000e-01  -1.250000e+00  -2.000000e+00  0  3781 0  -1.424087e+01 -4.669332e+00 -9.655395e-08   -8.068872e-09 2.627640e-08 -3.799826e-01 2.000000e-01  6.250000e-02  
-7.500000e-01  -1.250000e+00  -1.750000e+00  0  3845 0  -5.304707e+00 -6.351341e+00 -1.818640e+01   7.854596e-01 -9.635004e-01 -4.415549e-01 2.000000e-01  6.250000e-02  
-5.000000e-01  -1.250000e+00  -2.000000e+00  0  3782 0  -7.984498e+00 2.548485e+00 -3.733070e-08   8.243595e-09 -6.753396e-09 1.385644e-01 2.000000e-01  6.250000e-02  
-5.000000e-01  -1.250000e+00  -1.750000e+00  0  3846 0  1.512649e+00 -7.153270e+00 -1.525589e+01   8.534369e-01 -6.408689e-01 -1.303734e-01 2.000000e-01  6.250000e-02  
-2.500000e-01  -1.250000e+00  -2.000000e+00  0  3783 0  2.507287e+00 -1.568408e+00 -1.265567e-08   4.961593e-09 5.575172e-09 -1.612556e-01 2.000000e-01  6.250000e-02  
-2.500000e-01  -1.250000e+00  -1.750000e+00  0  3847 0  1.150867e+00 -5.978060e+00 -1.575093e+01   9.694954e-01 -3.776740e-01 -2.467394e-01 2.000000e-01  6.250000e-02  
0.000000e+00  -1.250000e+00  -2.000000e+00  0  3784 0  1.628909e-07 3.160914e+00 2.899631e-08   1.026226e-08 3.268929e-10 -1.099856e-08 2.000000e-01  6.250000e-02  
0.000000e+00  -1.250000e+00  -1.750000e+00  0  3848 0  -1.798423e-07 -8.835883e+00 -1.615310e+01   9.841827e-01 -2.920717e-08 -1.184682e-08 2.000000e-01  6.250000e-02  
-1.750000e+00  -1.000000e+00  -2.000000e+00  0  3023 0  -1.503058e+01 1.692471e+01 -6.466277e-07   2.828905e-07 4.056107e-09 -2.099066e+00 2.000000e-01  6.250000e-02  
-2.000000e+00  -1.000000e+00  -2.000000e+00  0  3022 0  -1.493556e-06 3.900642e+00 -9.302569e-07   2.868685e-07 -1.146948e-09 -4.527357e-07 2.000000e-01  6.250000e-02  
-1.750000e+00  -1.000000e+00  -1.750000e+00  0  3111 0  -4.281531e+00 8.244589e+00 -4.281531e+00   1.749940e+00 -7.166180e-09 -1.749940e+00 2.000000e-01  6.250000e-02  
-2.000000e+00  -1.000000e+00  -1.750000e+00  0  3110 0  -1.037394e-06 1.692471e+01 -1.503058e+01   2.099066e+00 -2.020395e-09 -4.483540e-07 2.000000e-01  6.250000e-02  
-1.500000e+00  -1.000000e+00  -2.000000e+00  0  3024 0  1.328762e+01 4.350983e+00 5.201166e-08   2.696373e-07 -8.772884e-08 -9.878877e-01 2.000000e-01  6.250000e-02  
-1.500000e+00  -1.000000e+00  -1.750000e+00  0  3112 0  9.479586e+00 2.281458e-01 -4.056756e+00   1.283465e+00 7.960003e-01 4.411414e-02 2.000000e-01  6.250000e-02  
-1.250000e+00  -1.000000e+00  -2.000000e+00  0  3787 0  -9.606382e-01 7.005698e+00 -1.696675e-07   1.727076e-07 -1.323221e-07 1.799078e+00 2.000000e-01  6.250000e-02  
-1.250000e+00  -1.000000e+00  -1.750000e+00  0  3851 0  -5.145829e+00 4.690443e+00 -1.500599e+01   8.007050e-01 -3.967730e-01 2.586570e+00 2.000000e-01  6.250000e-02  
-1.000000e+00  -1.000000e+00  -2.000000e+00  0  3788 0  -8.546406e+00 -8.546406e+00 -1.706909e-08   2.572498e-08 -2.530816e-08 4.053909e-09 2.000000e-01  6.250000e-02  
-1.000000e+00  -1.000000e+00  -1.750000e+00  0  3852 0  8.213287e+00 8.213287e+00 -1.341381e+01   -7.613934e-02 7.613935e-02 -1.169273e-09 2.000000e-01  6.250000e-02  
-7.500000e-01  -1.000000e+00  -2.000000e+00  0  3789 0  9.947524e-01 5.717144e+00 -4.855175e-09   -1.639453e-08 -5.565979e-10 1.356886e+00 2.000000e-01  6.250000e-02  
-7.500000e-01  -1.000000e+00  -1.750000e+00  0  3853 0  -3.690880e+00 1.594263e+01 -1.254345e+01   -1.741673e-01 -4.094787e-01 4.844261e-01 2.000000e-01  6.250000e-02  
-5.000000e-01  -1.000000e+00  -2.000000e+00  0  3790 0  -5.537582e-01 5.550204e-01 3.032749e-09   2.564788e-09 -8.103044e-09 9.852887e-01 2.000000e-01  6.250000e-02  
-5.000000e-01  -1.000000e+00  -1.750000e+00  0  3854 0  -5.235300e+00 -5.782185e+00 -1.293825e+01   5.093097e-01 -2.483067e-01 4.902206e-01 2.000000e-01  6.250000e-02  
-2.500000e-01  -1.000000e+00  -2.000000e+00  0  3791 0  -9.101589e-01 -5.012754e-01 5.240510e-09   -1.654037e-10 -4.957739e-10 -3.335183e-01 2.000000e-01  6.250000e-02  
-2.500000e-01  -1.000000e+00  -1.750000e+00  0  3855 0  7.669679e+00 4.212790e+00 -9.745611e+00   8.237312e-01 -2.187334e-01 -4.660115e-01 2.000000e-01  6.250000e-02  
0.000000e+00  -1.000000e+00  -2.000000e+00  0  3792 0  -5.060250e-10 -1.323282e+00 -4.885055e-09   -8.772369e-10 1.045306e-10 5.064741e-09 2.000000e-01  6.250000e-02  
0.000000e+00  -1.000000e+00  -1.750000e+00  0  3856 0  3.062148e-09 5.085495e+00 -1.368717e+01   8.680803e-01 7.372820e-09 2.629140e-09 2.000000e-01  6.250000e-02  
-1.750000e+00  -7.500000e-01  -2.000000e+00  0  3034 0  -1.816197e+01 -3.975950e+00 -5.016474e-07   1.386198e-07 7.254911e-08 -1.615961e+00 2.000000e-01  6.250000e-02  
-2.000000e+00  -7.500000e-01  -2.000000e+00  0  3033 0  9.906513e-07 -1.931974e+01 6.375017e-07   2.214769e-07 -9.724558e-10 -3.475819e-07 2.000000e-01  6.250000e-02  
-1.750000e+00  -7.500000e-01  -1.750000e+00  0  3122 0  -4.426286e+00 -1.818797e+01 -4.426286e+00   1.001605e+00 1.586287e-08 -1.001605e+00 2.000000e-01  6.250000e-02  
-2.000000e+00  -7.500000e-01  -1.750000e+00  0  3121 0  -7.747462e-07 -3.975950e+00 -1.816197e+01   1.615961e+00 -1.152200e-07 -2.159059e-07 2.000000e-01  6.250000e-02  
-1.500000e+00  -7.500000e-01  -2.000000e+00  0  3035 0  2.655318e+00 -6.452037e+00 2.931458e-07   1.014463e-08 -1.009678e-08 1.766331e-01 2.000000e-01  6.250000e-02  
-1.500000e+00  -7.500000e-01  -1.750000e+00  0  3123 0  2.148396e+01 -1.451411e+01 -1.068424e+01   7.228582e-01 1.745700e-01 -4.521984e-01 2.000000e-01  6.250000e-02  
-1.250000e+00  -7.500000e-01  -2.000000e+00  0  3795 0  -4.669332e+00 -1.424087e+01 -9.665133e-08   -2.600153e-08 7.288086e-09 3.799826e-01 2.000000e-01  6.250000e-02  
-1.250000e+00  -7.500000e-01  -1.750000e+00  0  3859 0  -6.351341e+00 -5.304707e+00 -1.818640e+01   9.635004e-01 -7.854596e-01 4.415550e-01 2.000000e-01  6.250000e-02  
-1.000000e+00  -7.500000e-01  -2.000000e+00  0  3796 0  5.717144e+00 9.947523e-01 -4.160474e-09   5.187563e-10 1.649929e-08 -1.356886e+00 2.000000e-01  6.250000e-02  
-1.000000e+00  -7.500000e-01  -1.750000e+00  0  3860 0  1.594263e+01 -3.690880e+00 -1.254345e+01   4.094786e-01 1.741673e-01 -4.844261e-01 2.000000e-01  6.250000e-02  
-7.500000e-01  -7.500000e-01  -2.000000e+00  0  3797 0  -5.957439e+00 -5.957439e+00 7.654152e-08   1.410878e-08 -1.431640e-08 -9.809974e-10 2.000000e-01  6.250000e-02  
-7.500000e-01  -7.500000e-01  -1.750000e+00  0  3861 0  -7.672629e+00 -7.672629e+00 -7.974151e+00   3.091739e-01 -3.091739e-01 7.710088e-10 2.000000e-01  6.250000e-02  
-5.000000e-01  -7.500000e-01  -2.000000e+00  0  3798 0  -2.780151e+00 -2.671059e+00 -1.901094e-08   4.792996e-09 -6.497693e-09 1.145208e-01 2.000000e-01  6.250000e-02  
-5.000000e-01  -7.500000e-01  -1.750000e+00  0  3862 0  1.201732e+00 -5.044150e+00 -1.732581e+01   6.010985e-01 -2.741941e-01 4.322301e-01 2.000000e-01  6.250000e-02  
-2.500000e-01  -7.500000e-01  -2.000000e+00  0  3799 0  2.977019e-01 9.095991e-01 -1.331262e-09   6.316286e-10 8.555038e-10 -2.453444e-01 2.000000e-01  6.250000e-02  
-2.500000e-01  -7.500000e-01  -1.750000e+00  0  3863 0  3.093470e+00 -4.126326e+00 -1.274833e+01   4.805388e-01 -1.341761e-01 -1.880242e-01 2.000000e-01  6.250000e-02  
0.000000e+00  -7.500000e-01  -2.000000e+00  0  3800 0  -4.817905e-09 -8.173795e-03 1.490377e-09   9.319572e-10 -1.260031e-11 3.046956e-09 2.000000e-01  6.250000e-02  
0.000000e+00  -7.500000e-01  -1.750000e+00  0  3864 0  -9.213922e-09 -9.754644e+00 -1.765546e+01   4.268054e-01 1.620099e-09 2.366661e-09 2.000000e-01  6.250000e-02  
-1.750000e+00  -5.000000e-01  -2.000000e+00  0  3045 0  -3.391851e+00 -4.206524e+00 -1.345313e-06   6.122118e-09 8.004629e-09 -8.041650e-01 2.000000e-01  6.250000e-02  
-2.000000e+00  -5.000000e-01  -2.000000e+00  0  3044 0  2.220520e-06 -1.470719e+01 1.400250e-06   5.874772e-08 -2.709411e-10 -8.553496e-08 2.000000e-01  6.250000e-02  
-1.750000e+00  -5.000000e-01  -1.750000e+00  0  3133 0  -1.516257e+01 -2.350767e+00 -1.516257e+01   7.102941e-01 1.193000e-08 -7.102941e-01 2.000000e-01  6.250000e-02  
-2.000000e+00  -5.000000e-01  -1.750000e+00  0  3132 0  -2.144906e-06 -4.206524e+00 -3.391851e+00   8.041650e-01 -1.416151e-08 -5.115883e-09 2.000000e-01  6.250000e-02  
-1.500000e+00  -5.000000e-01  -2.000000e+00  0  3046 0  9.871998e+00 -4.334524e+00 5.283150e-07   -2.147805e-08 -2.479818e-08 9.444693e-01 2.000000e-01  6.250000e-02  
-1.500000e+00  -5.000000e-01  -1.750000e+00  0  3134 0  2.171561e+01 4.201691e+00 -1.287935e+01   7.124294e-01 6.069295e-01 7.093269e-01 2.000000e-01  6.250000e-02  
-1.250000e+00  -5.000000e-01  -2.000000e+00  0  3803 0  2.548485e+00 -7.984498e+00 -3.794990e-08   6.628165e-09 -8.639776e-09 -1.385643e-01 2.000000e-01  6.250000e-02  
-1.250000e+00  -5.000000e-01  -1.750000e+00  0  3867 0  -7.153270e+00 1.512648e+00 -1.525589e+01   6.408689e-01 -8.534369e-01 1.303735e-01 2.000000e-01  6.250000e-02  
-1.000000e+00  -5.000000e-01  -2.000000e+00  0  3804 0  5.550205e-01 -5.537582e-01 2.681908e-09   8.019655e-09 -2.439089e-09 -9.852887e-01 2.000000e-01  6.250000e-02  
-1.000000e+00  -5.000000e-01  -1.750000e+00  0  3868 0  -5.782185e+00 -5.235300e+00 -1.293825e+01   2.483067e-01 -5.093097e-01 -4.902206e-01 2.000000e-01  6.250000e-02  
-7.500000e-01  -5.000000e-01  -2.000000e+00  0  3805 0  -2.671059e+00 -2.780151e+00 -1.951618e-08   6.372379e-09 -4.939596e-09 -1.145208e-01 2.000000e-01  6.250000e-02  
-7.500000e-01  -5.000000e-01  -1.750000e+00  0  3869 0  -5.044150e+00 1.201732e+00 -1.732581e+01   2.741941e-01 -6.010985e-01 -4.322301e-01 2.000000e-01  6.250000e-02  
-5.000000e-01  -5.000000e-01  -2.000000e+00  0  3806 0  -1.626840e+00 -1.626840e+00 8.270266e-09   1.504950e-09 -1.680673e-09 4.215761e-10 2.000000e-01  6.250000e-02  
-5.000000e-01  -5.000000e-01  -1.750000e+00  0  3870 0  2.412937e+00 2.412937e+00 -2.248338e+01   3.651567e-01 -3.651567e-01 3.903537e-10 2.000000e-01  6.250000e-02  
-2.500000e-01  -5.000000e-01  -2.000000e+00  0  3807 0  -1.628292e-01 -2.409682e+00 3.625376e-10   -7.495385e-10 5.869943e-10 -1.715271e-01 2.000000e-01  6.250000e-02  
-2.500000e-01  -5.000000e-01  -1.750000e+00  0  3871 0  2.849537e+00 -5.951803e+00 -1.602046e+01   2.006604e-01 -9.669611e-02 -2.080180e-01 2.000000e-01  6.250000e-02  
0.000000e+00  -5.000000e-01  -2.000000e+00  0  3808 0  1.412714e-09 -3.541405e+00 1.392683e-09   1.670980e-10 -1.635136e-11 -3.847537e-10 2.000000e-01  6.250000e-02  
0.000000e+00  -5.000000e-01  -1.750000e+00  0  3872 0  1.312792e-09 4.176407e+00 -2.027415e+01   1.960846e-01 -4.142723e-11 -2.032652e-10 2.000000e-01  6.250000e-02  
-1.750000e+00  -2.500000e-01  -2.000000e+00  0  3056 0  -1.724758e+01 -1.284900e-01 3.385913e-07   2.593255e-08 -1.559864e-08 -3.121936e-01 2.000000e-01  6.250000e-02  
-2.000000e+00  -2.500000e-01  -2.000000e+00  0  3055 0  -5.635645e-07 3.891972e+00 -3.608170e-07   5.838478e-08 6.738381e-10 -9.100103e-08 2.000000e-01  6.250000e-02  
-1.750000e+00  -2.500000e-01  -1.750000e+00  0  3144 0  -2.328959e-01 2.098703e+01 -2.328956e-01   3.877696e-01 3.934014e-09 -3.877696e-01 2.000000e-01  6.250000e-02  
-2.000000e+00  -2.500000e-01  -1.750000e+00  0  3143 0  5.379524e-07 -1.284902e-01 -1.724758e+01   3.121936e-01 2.337643e-08 -4.019701e-08 2.000000e-01  6.250000e-02  
-1.500000e+00  -2.500000e-01  -2.000000e+00  0  3057 0  7.617640e+00 1.030704e+00 -7.804977e-08   -9.164583e-09 1.121993e-08 7.788979e-01 2.000000e-01  6.250000e-02  
-1.500000e+00  -2.500000e-01  -1.750000e+00  0  3145 0  1.615727e+01 -2.922483e+00 -4.686090e+00   4.559081e-01 6.473482e-01 8.850529e-01 2.000000e-01  6.250000e-02  
-1.250000e+00  -2.500000e-01  -2.000000e+00  0  3811 0  -1.568408e+00 2.507287e+00 -1.256374e-08   -5.508572e-09 -4.824529e-09 1.612556e-01 2.000000e-01  6.250000e-02  
-1.250000e+00  -2.500000e-01  -1.750000e+00  0  3875 0  -5.978060e+00 1.150867e+00 -1.575093e+01   3.776740e-01 -9.694954e-01 2.467394e-01 2.000000e-01  6.250000e-02  
-1.000000e+00  -2.500000e-01  -2.000000e+00  0  3812 0  -5.012754e-01 -9.101590e-01 5.421719e-09   4.814876e-10 3.009115e-10 3.335183e-01 2.000000e-01  6.250000e-02  
-1.000000e+00  -2.500000e-01  -1.750000e+00  0  3876 0  4.212790e+00 7.669679e+00 -9.745611e+00   2.187334e-01 -8.237312e-01 4.660115e-01 2.000000e-01  6.250000e-02  
-7.500000e-01  -2.500000e-01  -2.000000e+00  0  3813 0  9.095991e-01 2.977019e-01 -6.992891e-10   -8.611580e-10 -6.825102e-10 2.453444e-01 2.000000e-01  6.250000e-02  
-7.500000e-01  -2.500000e-01  -1.750000e+00  0  3877 0  -4.126326e+00 3.093470e+00 -1.274833e+01   1.341761e-01 -4.805388e-01 1.880242e-01 2.000000e-01  6.250000e-02  
-5.000000e-01  -2.500000e-01  -2.000000e+00  0  3814 0  -2.409682e+00 -1.628292e-01 1.338521e-09   -5.319664e-10 5.933306e-10 1.715271e-01 2.000000e-01  6.250000e-02  
-5.000000e-01  -2.500000e-01  -1.750000e+00  0  3878 0  -5.951803e+00 2.849537e+00 -1.602046e+01   9.669611e-02 -2.006604e-01 2.080180e-01 2.000000e-01  6.250000e-02  
-2.500000e-01  -2.500000e-01  -2.000000e+00  0  3815 0  4.292422e-01 4.292422e-01 3.101443e-10   2.682091e-11 5.831352e-11 6.214896e-11 2.000000e-01  6.250000e-02  
-2.500000e-01  -2.500000e-01  -1.750000e+00  0  3879 0  2.855408e+00 2.855408e+00 -1.437929e+01   1.198195e-01 -1.198195e-01 9.274788e-11 2.000000e-01  6.250000e-02  
0.000000e+00  -2.500000e-01  -2.000000e+00  0  3816 0  -5.425213e-11 -2.225699e-01 5.845354e-10   1.359135e-11 8.541162e-11 4.594928e-12 2.000000e-01  6.250000e-02  
0.000000e+00  -2.500000e-01  -1.750000e+00  0  3880 0  6.295578e-10 3.507003e+00 -1.579769e+01   1.840096e-01 -1.945938e-11 -1.197474e-11 2.000000e-01  6.250000e-02  
-1.750000e+00  0.000000e+00  -2.000000e+00  0  3067 0  -2.319728e+00 1.757163e-06 2.307419e-07   1.072359e-10 -2.270903e-08 7.013211e-07 2.000000e-01  6.250000e-02  
-2.000000e+00  0.000000e+00  -2.000000e+00  0  3066 0  -8.569999e-07 -2.502398e-06 -5.480986e-07   5.380382e-10 8.081313e-10 7.469819e-10 2.000000e-01  6.250000e-02  
-1.750000e+00  0.000000e+00  -1.750000e+00  0  3155 0  -1.764735e+01 -4.897579e-06 -1.764735e+01   -5.546120e-07 -1.216595e-08 5.548728e-07 2.000000e-01  6.250000e-02  
-2.000000e+00  0.000000e+00  -1.750000e+00  0  3154 0  3.516136e-07 1.758776e-06 -2.319727e+00   -7.007529e-07 3.504321e-08 9.005151e-10 2.000000e-01  6.250000e-02  
-1.500000e+00  0.000000e+00  -2.000000e+00  0  3068 0  7.656199e+00 -2.418054e-07 -1.670796e-07   -1.484909e-10 2.682244e-08 2.852423e-07 2.000000e-01  6.250000e-02  
-1.500000e+00  0.000000e+00  -1.750000e+00  0  3156 0  2.251002e+01 7.072340e-07 -1.321126e+01   -1.767820e-07 5.486306e-01 2.137080e-07 2.000000e-01  6.250000e-02  
-1.250000e+00  0.000000e+00  -2.000000e+00  0  3819 0  3.160914e+00 1.277557e-07 2.848416e-08   -1.430158e-10 -9.829441e-09 9.078466e-09 2.000000e-01  6.250000e-02  
-1.250000e+00  0.000000e+00  -1.750000e+00  0  3883 0  -8.835883e+00 -1.412395e-07 -1.615310e+01   2.287913e-08 -9.841826e-01 9.646741e-09 2.000000e-01  6.250000e-02  
-1.000000e+00  0.000000e+00  -2.000000e+00  0  3820 0  -1.323282e+00 -7.221938e-10 -5.046025e-09   -1.028460e-10 1.017676e-09 -4.020511e-09 2.000000e-01  6.250000e-02  
-1.000000e+00  0.000000e+00  -1.750000e+00  0  3884 0  5.085495e+00 2.845349e-09 -1.368717e+01   -5.792651e-09 -8.680803e-01 -2.059028e-09 2.000000e-01  6.250000e-02  
-7.500000e-01  0.000000e+00  -2.000000e+00  0  3821 0  -8.173796e-03 -2.976532e-09 1.701597e-09   -8.319484e-11 -9.185045e-10 -2.212336e-09 2.000000e-01  6.250000e-02  
-7.500000e-01  0.000000e+00  -1.750000e+00  0  3885 0  -9.754644e+00 -7.443838e-09 -1.765546e+01   -1.375255e-09 -4.268054e-01 -1.767085e-09 2.000000e-01  6.250000e-02  
-5.000000e-01  0.000000e+00  -2.000000e+00  0  3822 0  -3.541405e+00 -3.889082e-10 1.817901e-09   -4.099177e-11 -2.904849e-10 2.833138e-10 2.000000e-01  6.250000e-02  
-5.000000e-01  0.000000e+00  -1.750000e+00  0  3886 0  4.176407e+00 2.722004e-09 -2.027415e+01   -7.149587e-11 -1.960846e-01 1.523026e-10 2.000000e-01  6.250000e-02  
-2.500000e-01  0.000000e+00  -2.000000e+00  0  3823 0  -2.225699e-01 1.164732e-09 1.135898e-09   2.305711e-12 -4.121267e-11 -3.004205e-11 2.000000e-01  6.250000e-02  
-2.500000e-01  0.000000e+00  -1.750000e+00  0  3887 0  3.507003e+00 -1.038872e-09 -1.579769e+01   6.172672e-12 -1.840096e-01 4.943022e-11 2.000000e-01  6.250000e-02  
0.000000e+00  0.000000e+00  -2.000000e+00  0  3824 0  1.547964e-09 2.272855e-10 3.283404e-09   6.373710e-11 3.943296e-11 8.491218e-11 2.000000e-01  6.250000e-02  
0.000000e+00  0.000000e+00  -1.750000e+00  0  3888 0  -1.309799e-09 -4.674614e-10 -1.919195e+01   1.337954e-10 5.067699e-11 8.133946e-11 2.000000e-01  6.250000e-02  
-2.000000e+00  -2.000000e+00  -1.500000e+00  0  1306 0  -1.509995e-05 -1.166645e-05 -8.860870e+00   -1.478171e-06 1.601031e-06 4.362939e-09 2.000000e-01  6.250000e-02  
-1.750000e+00  -2.000000e+00  -1.500000e+00  0  1307 0  -5.917864e+00 -2.053666e-06 1.519630e+01   2.648189e-07 -1.647543e+00 -7.913325e-08 2.000000e-01  6.250000e-02  
-1.750000e+00  -1.750000e+00  -1.500000e+00  0  1318 0  -1.626667e+01 -1.626667e+01 9.611894e-01   2.103219e+00 -2.103219e+00 -1.829247e-08 2.000000e-01  6.250000e-02  
-2.000000e+00  -1.750000e+00  -1.500000e+00  0  1317 0  -2.600834e-06 -5.917864e+00 1.519630e+01   1.647543e+00 -4.890373e-07 2.275736e-07 2.000000e-01  6.250000e-02  
-1.500000e+00  -2.000000e+00  -1.500000e+00  0  1308 0  2.292442e+00 -3.049958e-07 2.292442e+00   9.486834e-07 -1.596549e-07 -9.497752e-07 2.000000e-01  6.250000e-02  
-1.500000e+00  -1.750000e+00  -1.500000e+00  0  1319 0  5.873090e+00 -1.848965e+01 5.873092e+00   2.169620e+00 2.421150e-07 -2.169620e+00 2.000000e-01  6.250000e-02  
-1.250000e+00  -2.000000e+00  -1.500000e+00  0  2275 0  -6.933286e+00 -2.013302e-06 5.954005e+00   -1.743373e-07 8.810847e-01 3.316158e-07 2.000000e-01  6.250000e-02  
-1.250000e+00  -1.750000e+00  -1.500000e+00  0  2283 0  -2.896814e+00 -1.320086e+01 1.006053e+01   1.745500e+00 1.304701e+00 1.292825e+00 2.000000e-01  6.250000e-02  
-1.000000e+00  -2.000000e+00  -1.500000e+00  0  2276 0  4.350983e+00 6.904045e-08 1.328762e+01   -1.054157e-07 -9.878878e-01 3.330666e-07 2.000000e-01  6.250000e-02  
-1.000000e+00  -1.750000e+00  -1.500000e+00  0  2284 0  2.281461e-01 -4.056757e+00 9.479586e+00   7.960005e-01 4.411396e-02 1.283465e+00 2.000000e-01  6.250000e-02  
-7.500000e-01  -2.000000e+00  -1.500000e+00  0  2277 0  -6.452036e+00 3.521300e-07 2.655318e+00   -1.201101e-08 1.766332e-01 9.497698e-09 2.000000e-01  6.250000e-02  
-7.500000e-01  -1.750000e+00  -1.500000e+00  0  2285 0  -1.451411e+01 -1.068424e+01 2.148396e+01   1.745701e-01 -4.521982e-01 7.228582e-01 2.000000e-01  6.250000e-02  
-5.000000e-01  -2.000000e+00  -1.500000e+00  0  2278 0  -4.334524e+00 6.579599e-07 9.871997e+00   -3.015092e-08 9.444696e-01 -2.931719e-08 2.000000e-01  6.250000e-02  
-5.000000e-01  -1.750000e+00  -1.500000e+00  0  2286 0  4.201689e+00 -1.287935e+01 2.171561e+01   6.069295e-01 7.093272e-01 7.124294e-01 2.000000e-01  6.250000e-02  