VARIABLES="X", "Y", "Z", "Maximum Refinment Level", "Temp_ID", "Thread","Ex (corner node)","Ey (corner node)","Ez (corner node)","Bx (center node)","By (center node)","Bz (center node)", "Local Time Step" , "log10(Local Particle Weight)" 
ZONE N=4913, E=4096, DATAPACKING=POINT, ZONETYPE=FEBRICK
-2.000000e+00  -2.000000e+00  -2.000000e+00  0  1064 0  -1.660247e-05 -8.499788e-07 -2.586685e-05   -4.247097e-11 -2.177582e-10 4.381232e-10 2.000000e-01  6.250000e-02  
-1.750000e+00  -2.000000e+00  -2.000000e+00  0  1065 0  1.018185e+01 -5.313917e-07 4.570902e-06   2.808315e-09 -2.583714e-06 -1.259293e-07 2.000000e-01  6.250000e-02  
-1.750000e+00  -1.750000e+00  -2.000000e+00  0  1076 0  -3.341218e-01 -3.341069e-01 -3.124427e-05   1.372835e-06 -1.385744e-06 -6.836438e-07 2.000000e-01  6.250000e-02  
-2.000000e+00  -1.750000e+00  -2.000000e+00  0  1075 0  3.649625e-06 1.018187e+01 4.578811e-06   2.572430e-06 -6.252771e-10 -1.949009e-06 2.000000e-01  6.250000e-02  
-2.000000e+00  -2.000000e+00  -1.750000e+00  0  1185 0  3.803188e-06 -3.787841e-07 1.018184e+01   6.796917e-08 1.971812e-06 -3.743996e-09 2.000000e-01  6.250000e-02  
-1.750000e+00  -2.000000e+00  -1.750000e+00  0  1186 0  -3.341272e-01 1.032378e-06 -3.341329e-01   6.783875e-08 -9.936583e-08 -4.262220e-08 2.000000e-01  6.250000e-02  
-1.750000e+00  -1.750000e+00  -1.750000e+00  0  1197 0  1.643180e+00 1.643191e+00 1.643170e+00   7.115132e-07 -1.565348e-07 -5.614327e-07 2.000000e-01  6.250000e-02  
-2.000000e+00  -1.750000e+00  -1.750000e+00  0  1196 0  -2.282422e-05 -3.341139e-01 -3.341346e-01   7.824153e-07 1.004533e-06 -1.055683e-06 2.000000e-01  6.250000e-02  
-1.500000e+00  -2.000000e+00  -2.000000e+00  0  1066 0  -8.860858e+00 -1.980753e-09 -1.725646e-05   3.434682e-09 -2.156375e-06 -5.427527e-08 2.000000e-01  6.250000e-02  
-1.500000e+00  -1.750000e+00  -2.000000e+00  0  1077 0  1.519629e+01 -5.917856e+00 -2.576524e-06   -3.694858e-07 2.467929e-07 -1.647542e+00 2.000000e-01  6.250000e-02  
-1.500000e+00  -2.000000e+00  -1.750000e+00  0  1187 0  1.519630e+01 -1.142726e-07 -5.917863e+00   9.041724e-09 1.647543e+00 8.456793e-09 2.000000e-01  6.250000e-02  
-1.500000e+00  -1.750000e+00  -1.750000e+00  0  1198 0  9.612027e-01 -1.626666e+01 -1.626666e+01   1.017556e-07 2.103217e+00 -2.103218e+00 2.000000e-01  6.250000e-02  
-1.250000e+00  -2.000000e+00  -2.000000e+00  0  2099 0  -2.694823e+01 1.659999e-09 -6.384990e-06   8.561673e-10 -1.895268e-06 -4.819887e-09 2.000000e-01  6.250000e-02  
-1.250000e+00  -1.750000e+00  -2.000000e+00  0  2107 0  5.823758e+00 4.798433e-01 1.541730e-06   -6.276604e-07 -1.238353e-06 -1.121457e-01 2.000000e-01  6.250000e-02  
-1.250000e+00  -2.000000e+00  -1.750000e+00  0  2187 0  5.823759e+00 -2.481314e-08 4.798393e-01   1.379915e-08 1.121461e-01 -1.079932e-08 2.000000e-01  6.250000e-02  
-1.250000e+00  -1.750000e+00  -1.750000e+00  0  2195 0  3.261580e+00 -1.479632e+01 -1.479633e+01   -3.470082e-07 -7.847245e-01 7.847238e-01 2.000000e-01  6.250000e-02  
-1.000000e+00  -2.000000e+00  -2.000000e+00  0  2100 0  3.900640e+00 -1.364951e-07 -6.544831e-06   3.624587e-10 -1.495704e-07 -1.256614e-08 2.000000e-01  6.250000e-02  
-1.000000e+00  -1.750000e+00  -2.000000e+00  0  2108 0  1.692471e+01 -1.503058e+01 -1.506476e-06   -4.235237e-07 -2.803064e-07 2.099067e+00 2.000000e-01  6.250000e-02  
-1.000000e+00  -2.000000e+00  -1.750000e+00  0  2188 0  1.692471e+01 -1.343799e-08 -1.503058e+01   2.357250e-08 -2.099067e+00 -9.581232e-09 2.000000e-01  6.250000e-02  
-1.000000e+00  -1.750000e+00  -1.750000e+00  0  2196 0  8.244598e+00 -4.281531e+00 -4.281531e+00   -2.118507e-07 -1.749940e+00 1.749940e+00 2.000000e-01  6.250000e-02  
-7.500000e-01  -2.000000e+00  -2.000000e+00  0  2101 0  -1.931975e+01 1.480930e-08 5.554434e-07   1.589481e-10 -1.292536e-07 -9.627768e-09 2.000000e-01  6.250000e-02  
-7.500000e-01  -1.750000e+00  -2.000000e+00  0  2109 0  -3.975955e+00 -1.816197e+01 -1.008792e-06   -3.172562e-07 -9.772318e-08 1.615960e+00 2.000000e-01  6.250000e-02  
-7.500000e-01  -2.000000e+00  -1.750000e+00  0  2189 0  -3.975954e+00 3.357807e-09 -1.816197e+01   3.099190e-09 -1.615960e+00 -5.057199e-09 2.000000e-01  6.250000e-02  
-7.500000e-01  -1.750000e+00  -1.750000e+00  0  2197 0  -1.818797e+01 -4.426280e+00 -4.426280e+00   -1.062306e-07 -1.001605e+00 1.001605e+00 2.000000e-01  6.250000e-02  
-5.000000e-01  -2.000000e+00  -2.000000e+00  0  2102 0  -1.470716e+01 -4.398852e-08 1.108179e-06   1.311810e-10 -6.014106e-08 6.702924e-09 2.000000e-01  6.250000e-02  
-5.000000e-01  -1.750000e+00  -2.000000e+00  0  2110 0  -4.206523e+00 -3.391849e+00 -2.420023e-06   -1.094644e-07 1.378923e-08 8.041640e-01 2.000000e-01  6.250000e-02  
-5.000000e-01  -2.000000e+00  -1.750000e+00  0  2190 0  -4.206523e+00 1.352290e-08 -3.391849e+00   6.977152e-11 -8.041639e-01 4.715212e-09 2.000000e-01  6.250000e-02  
-5.000000e-01  -1.750000e+00  -1.750000e+00  0  2198 0  -2.350762e+00 -1.516257e+01 -1.516257e+01   -3.245037e-08 -7.102937e-01 7.102936e-01 2.000000e-01  6.250000e-02  
-2.500000e-01  -2.000000e+00  -2.000000e+00  0  2103 0  3.891982e+00 -2.456785e-09 -9.413807e-07   1.537918e-10 -5.848038e-08 -3.227702e-09 2.000000e-01  6.250000e-02  
-2.500000e-01  -1.750000e+00  -2.000000e+00  0  2111 0  -1.284922e-01 -1.724758e+01 5.319469e-07   -4.439950e-08 -2.391085e-08 3.121931e-01 2.000000e-01  6.250000e-02  
-2.500000e-01  -2.000000e+00  -1.750000e+00  0  2191 0  -1.284915e-01 -3.419220e-09 -1.724758e+01   9.826853e-10 -3.121932e-01 -2.204275e-09 2.000000e-01  6.250000e-02  
-2.500000e-01  -1.750000e+00  -1.750000e+00  0  2199 0  2.098704e+01 -2.329106e-01 -2.329115e-01   -2.841358e-08 -3.877688e-01 3.877686e-01 2.000000e-01  6.250000e-02  
0.000000e+00  -2.000000e+00  -2.000000e+00  0  2104 0  -1.666111e-07 1.595560e-08 -1.540587e-06   3.258527e-11 -5.607650e-10 -5.824860e-10 2.000000e-01  6.250000e-02  
0.000000e+00  -1.750000e+00  -2.000000e+00  0  2112 0  1.955183e-06 -2.319745e+00 2.711018e-07   -1.603279e-08 -3.186435e-10 -9.957323e-07 2.000000e-01  6.250000e-02  
0.000000e+00  -2.000000e+00  -1.750000e+00  0  2192 0  1.957954e-06 5.291424e-09 -2.319746e+00   -1.002196e-09 9.942487e-07 1.666980e-10 2.000000e-01  6.250000e-02  
0.000000e+00  -1.750000e+00  -1.750000e+00  0  2200 0  -4.531577e-06 -1.764734e+01 -1.764734e+01   -6.332465e-08 7.221017e-07 -7.225960e-07 2.000000e-01  6.250000e-02  
-1.750000e+00  -1.500000e+00  -2.000000e+00  0  1087 0  -5.917859e+00 1.519630e+01 -2.574958e-06   -2.423595e-07 3.642933e-07 1.647543e+00 2.000000e-01  6.250000e-02  
-2.000000e+00  -1.500000e+00  -2.000000e+00  0  1086 0  -1.224076e-05 -8.860866e+00 -1.721579e-05   2.165450e-06 -1.000528e-09 -1.535278e-06 2.000000e-01  6.250000e-02  
-1.750000e+00  -1.500000e+00  -1.750000e+00  0  1208 0  -1.626667e+01 9.611920e-01 -1.626667e+01   -2.103218e+00 -9.572661e-08 2.103218e+00 2.000000e-01  6.250000e-02  
-2.000000e+00  -1.500000e+00  -1.750000e+00  0  1207 0  -1.962108e-06 1.519630e+01 -5.917860e+00   -1.647543e+00 -2.788004e-07 1.941659e-07 2.000000e-01  6.250000e-02  
-1.500000e+00  -1.500000e+00  -2.000000e+00  0  1088 0  2.292439e+00 2.292439e+00 -7.406806e-07   -1.265572e-06 1.265427e-06 -7.908388e-08 2.000000e-01  6.250000e-02  
-1.500000e+00  -1.500000e+00  -1.750000e+00  0  1209 0  5.873096e+00 5.873099e+00 -1.848965e+01   -2.169619e+00 2.169619e+00 -4.578244e-07 2.000000e-01  6.250000e-02  
-1.250000e+00  -1.500000e+00  -2.000000e+00  0  2115 0  -6.933285e+00 5.954008e+00 -2.839577e-06   1.778397e-07 -4.439166e-07 -8.810849e-01 2.000000e-01  6.250000e-02  
-1.250000e+00  -1.500000e+00  -1.750000e+00  0  2203 0  -2.896821e+00 1.006053e+01 -1.320086e+01   -1.745500e+00 -1.292825e+00 -1.304701e+00 2.000000e-01  6.250000e-02  
-1.000000e+00  -1.500000e+00  -2.000000e+00  0  2116 0  4.350978e+00 1.328762e+01 -3.015286e-08   8.439823e-08 -4.060379e-07 9.878882e-01 2.000000e-01  6.250000e-02  
-1.000000e+00  -1.500000e+00  -1.750000e+00  0  2204 0  2.281405e-01 9.479586e+00 -4.056759e+00   -7.960005e-01 -1.283464e+00 -4.411429e-02 2.000000e-01  6.250000e-02  
-7.500000e-01  -1.500000e+00  -2.000000e+00  0  2117 0  -6.452034e+00 2.655319e+00 4.527367e-07   -6.314124e-09 -1.138070e-09 -1.766328e-01 2.000000e-01  6.250000e-02  
-7.500000e-01  -1.500000e+00  -1.750000e+00  0  2205 0  -1.451409e+01 2.148396e+01 -1.068424e+01   -1.745698e-01 -7.228574e-01 4.521982e-01 2.000000e-01  6.250000e-02  
-5.000000e-01  -1.500000e+00  -2.000000e+00  0  2118 0  -4.334519e+00 9.872004e+00 8.546892e-07   2.775780e-08 4.171500e-08 -9.444691e-01 2.000000e-01  6.250000e-02  
-5.000000e-01  -1.500000e+00  -1.750000e+00  0  2206 0  4.201676e+00 2.171561e+01 -1.287935e+01   -6.069299e-01 -7.124292e-01 -7.093265e-01 2.000000e-01  6.250000e-02  
-2.500000e-01  -1.500000e+00  -2.000000e+00  0  2119 0  1.030708e+00 7.617637e+00 -1.616970e-07   -2.734067e-08 1.610093e-08 -7.788976e-01 2.000000e-01  6.250000e-02  
-2.500000e-01  -1.500000e+00  -1.750000e+00  0  2207 0  -2.922481e+00 1.615728e+01 -4.686085e+00   -6.473488e-01 -4.559070e-01 -8.850529e-01 2.000000e-01  6.250000e-02  
0.000000e+00  -1.500000e+00  -2.000000e+00  0  2120 0  -5.999661e-08 7.656195e+00 -3.267522e-07   -5.283212e-08 4.020277e-11 -3.097904e-07 2.000000e-01  6.250000e-02  
0.000000e+00  -1.500000e+00  -1.750000e+00  0  2208 0  6.959386e-07 2.251002e+01 -1.321126e+01   -5.486306e-01 2.115363e-07 -2.243669e-07 2.000000e-01  6.250000e-02  
-1.750000e+00  -1.250000e+00  -2.000000e+00  0  3012 0  4.798388e-01 5.823762e+00 1.545096e-06   1.233143e-06 6.245052e-07 1.121471e-01 2.000000e-01  6.250000e-02  
-2.000000e+00  -1.250000e+00  -2.000000e+00  0  3011 0  -4.553342e-06 -2.694821e+01 -6.355676e-06   1.887882e-06 -7.872621e-10 -1.351519e-06 2.000000e-01  6.250000e-02  
-1.750000e+00  -1.250000e+00  -1.750000e+00  0  3100 0  -1.479632e+01 3.261580e+00 -1.479632e+01   7.847231e-01 7.299736e-08 -7.847229e-01 2.000000e-01  6.250000e-02  
-2.000000e+00  -1.250000e+00  -1.750000e+00  0  3099 0  1.177676e-06 5.823763e+00 4.798378e-01   -1.121471e-01 -4.254748e-07 -8.772030e-07 2.000000e-01  6.250000e-02  
-1.500000e+00  -1.250000e+00  -2.000000e+00  0  3013 0  5.954007e+00 -6.933285e+00 -2.836085e-06   4.430582e-07 -1.779036e-07 8.810853e-01 2.000000e-01  6.250000e-02  
-1.500000e+00  -1.250000e+00  -1.750000e+00  0  3101 0  1.006052e+01 -2.896823e+00 -1.320086e+01   1.292825e+00 1.745500e+00 1.304701e+00 2.000000e-01  6.250000e-02  
-1.250000e+00  -1.250000e+00  -2.000000e+00  0  3779 0  -2.077857e+00 -2.077859e+00 4.171638e-07   3.846645e-07 -3.841666e-07 -9.845975e-08 2.000000e-01  6.250000e-02  
-1.250000e+00  -1.250000e+00  -1.750000e+00  0  3843 0  -4.502654e+00 -4.502654e+00 -1.139270e+01   4.393736e-01 -4.393736e-01 -1.162732e-07 2.000000e-01  6.250000e-02  
-1.000000e+00  -1.250000e+00  -2.000000e+00  0  3780 0  7.005713e+00 -9.606347e-01 -3.185154e-07   2.014285e-07 -2.716348e-07 -1.799077e+00 2.000000e-01  6.250000e-02  
-1.000000e+00  -1.250000e+00  -1.750000e+00  0  3844 0  4.690440e+00 -5.145816e+00 -1.500599e+01   3.967722e-01 -8.007031e-01 -2.586570e+00 2.000000e-01  6.250000e-02  
-7.500000e-01  -1.250000e+00  -2.000000e+00  0  3781 0  -1.424086e+01 -4.669341e+00 -1.605087e-07   -1.696939e-08 4.590738e-08 -3.799828e-01 2.000000e-01  6.250000e-02  
-7.500000e-01  -1.250000e+00  -1.750000e+00  0  3845 0  -5.304712e+00 -6.351333e+00 -1.818639e+01   7.854592e-01 -9.634996e-01 -4.415546e-01 2.000000e-01  6.250000e-02  
-5.000000e-01  -1.250000e+00  -2.000000e+00  0  3782 0  -7.984502e+00 2.548492e+00 -7.029794e-08   9.571363e-09 -9.510807e-09 1.385644e-01 2.000000e-01  6.250000e-02  
-5.000000e-01  -1.250000e+00  -1.750000e+00  0  3846 0  1.512655e+00 -7.153268e+00 -1.525589e+01   8.534362e-01 -6.408682e-01 -1.303731e-01 2.000000e-01  6.250000e-02  
-2.500000e-01  -1.250000e+00  -2.000000e+00  0  3783 0  2.507287e+00 -1.568411e+00 -2.586800e-08   4.069559e-09 9.407663e-09 -1.612549e-01 2.000000e-01  6.250000e-02  
-2.500000e-01  -1.250000e+00  -1.750000e+00  0  3847 0  1.150865e+00 -5.978064e+00 -1.575092e+01   9.694949e-01 -3.776733e-01 -2.467390e-01 2.000000e-01  6.250000e-02  
0.000000e+00  -1.250000e+00  -2.000000e+00  0  3784 0  1.400568e-07 3.160909e+00 4.095450e-08   1.258006e-08 1.885466e-10 -3.692277e-08 2.000000e-01  6.250000e-02  
0.000000e+00  -1.250000e+00  -1.750000e+00  0  3848 0  -1.340646e-07 -8.835871e+00 -1.615309e+01   9.841827e-01 -8.252642e-09 -2.653767e-08 2.000000e-01  6.250000e-02  
-1.750000e+00  -1.000000e+00  -2.000000e+00  0  3023 0  -1.503058e+01 1.692471e+01 -1.502066e-06   2.808515e-07 4.183659e-07 -2.099066e+00 2.000000e-01  6.250000e-02  
-2.000000e+00  -1.000000e+00  -2.000000e+00  0  3022 0  -4.606445e-06 3.900633e+00 -6.514709e-06   1.513920e-07 -1.358474e-10 -1.228395e-07 2.000000e-01  6.250000e-02  
-1.750000e+00  -1.000000e+00  -1.750000e+00  0  3111 0  -4.281531e+00 8.244603e+00 -4.281532e+00   1.749939e+00 9.369187e-08 -1.749939e+00 2.000000e-01  6.250000e-02  
-2.000000e+00  -1.000000e+00  -1.750000e+00  0  3110 0  -1.132725e-06 1.692471e+01 -1.503058e+01   2.099066e+00 -2.801441e-07 -2.059641e-07 2.000000e-01  6.250000e-02  
-1.500000e+00  -1.000000e+00  -2.000000e+00  0  3024 0  1.328762e+01 4.350979e+00 -3.251714e-08   4.058733e-07 -8.529320e-08 -9.878877e-01 2.000000e-01  6.250000e-02  
-1.500000e+00  -1.000000e+00  -1.750000e+00  0  3112 0  9.479587e+00 2.281390e-01 -4.056757e+00   1.283464e+00 7.960004e-01 4.411474e-02 2.000000e-01  6.250000e-02  
-1.250000e+00  -1.000000e+00  -2.000000e+00  0  3787 0  -9.606352e-01 7.005714e+00 -3.176559e-07   2.719146e-07 -2.011058e-07 1.799077e+00 2.000000e-01  6.250000e-02  
-1.250000e+00  -1.000000e+00  -1.750000e+00  0  3851 0  -5.145816e+00 4.690440e+00 -1.500599e+01   8.007031e-01 -3.967722e-01 2.586570e+00 2.000000e-01  6.250000e-02  
-1.000000e+00  -1.000000e+00  -2.000000e+00  0  3788 0  -8.546414e+00 -8.546414e+00 -3.333983e-08   4.105854e-08 -4.118673e-08 -3.929443e-08 2.000000e-01  6.250000e-02  
-1.000000e+00  -1.000000e+00  -1.750000e+00  0  3852 0  8.213288e+00 8.213288e+00 -1.341381e+01   -7.614009e-02 7.614011e-02 -1.889625e-08 2.000000e-01  6.250000e-02  
-7.500000e-01  -1.000000e+00  -2.000000e+00  0  3789 0  9.947621e-01 5.717154e+00 -9.176694e-09   -2.774018e-08 -1.121065e-09 1.356886e+00 2.000000e-01  6.250000e-02  
-7.500000e-01  -1.000000e+00  -1.750000e+00  0  3853 0  -3.690884e+00 1.594263e+01 -1.254345e+01   -1.741674e-01 -4.094783e-01 4.844264e-01 2.000000e-01  6.250000e-02  
-5.000000e-01  -1.000000e+00  -2.000000e+00  0  3790 0  -5.537631e-01 5.550188e-01 4.806491e-09   3.670835e-09 -1.321948e-08 9.852892e-01 2.000000e-01  6.250000e-02  
-5.000000e-01  -1.000000e+00  -1.750000e+00  0  3854 0  -5.235298e+00 -5.782188e+00 -1.293825e+01   5.093093e-01 -2.483058e-01 4.902206e-01 2.000000e-01  6.250000e-02  
-2.500000e-01  -1.000000e+00  -2.000000e+00  0  3791 0  -9.101547e-01 -5.012747e-01 8.401601e-09   -8.017225e-10 -1.085619e-09 -3.335175e-01 2.000000e-01  6.250000e-02  
-2.500000e-01  -1.000000e+00  -1.750000e+00  0  3855 0  7.669679e+00 4.212799e+00 -9.745602e+00   8.237319e-01 -2.187330e-01 -4.660113e-01 2.000000e-01  6.250000e-02  
0.000000e+00  -1.000000e+00  -2.000000e+00  0  3792 0  1.582417e-10 -1.323287e+00 -9.329839e-09   -2.040458e-09 -1.336570e-11 2.136386e-09 2.000000e-01  6.250000e-02  
0.000000e+00  -1.000000e+00  -1.750000e+00  0  3856 0  4.883488e-09 5.085485e+00 -1.368717e+01   8.680818e-01 6.656435e-09 1.099420e-09 2.000000e-01  6.250000e-02  
-1.750000e+00  -7.500000e-01  -2.000000e+00  0  3034 0  -1.816198e+01 -3.975956e+00 -1.003436e-06   9.744633e-08 3.158543e-07 -1.615961e+00 2.000000e-01  6.250000e-02  
-2.000000e+00  -7.500000e-01  -2.000000e+00  0  3033 0  3.628030e-07 -1.931974e+01 5.454426e-07   1.291783e-07 8.294592e-11 -1.075796e-07 2.000000e-01  6.250000e-02  
-1.750000e+00  -7.500000e-01  -1.750000e+00  0  3122 0  -4.426273e+00 -1.818798e+01 -4.426272e+00   1.001605e+00 1.880395e-08 -1.001605e+00 2.000000e-01  6.250000e-02  
-2.000000e+00  -7.500000e-01  -1.750000e+00  0  3121 0  -6.467937e-07 -3.975955e+00 -1.816198e+01   1.615960e+00 -2.268441e-07 -7.647693e-08 2.000000e-01  6.250000e-02  
-1.500000e+00  -7.500000e-01  -2.000000e+00  0  3035 0  2.655319e+00 -6.452034e+00 4.497079e-07   1.169589e-09 6.101992e-09 1.766324e-01 2.000000e-01  6.250000e-02  
-1.500000e+00  -7.500000e-01  -1.750000e+00  0  3123 0  2.148396e+01 -1.451409e+01 -1.068424e+01   7.228575e-01 1.745696e-01 -4.521986e-01 2.000000e-01  6.250000e-02  
-1.250000e+00  -7.500000e-01  -2.000000e+00  0  3795 0  -4.669341e+00 -1.424087e+01 -1.609505e-07   -4.558825e-08 1.684688e-08 3.799828e-01 2.000000e-01  6.250000e-02  
-1.250000e+00  -7.500000e-01  -1.750000e+00  0  3859 0  -6.351333e+00 -5.304712e+00 -1.818639e+01   9.634996e-01 -7.854592e-01 4.415546e-01 2.000000e-01  6.250000e-02  
-1.000000e+00  -7.500000e-01  -2.000000e+00  0  3796 0  5.717154e+00 9.947621e-01 -1.042169e-08   1.292549e-09 2.746607e-08 -1.356886e+00 2.000000e-01  6.250000e-02  
-1.000000e+00  -7.500000e-01  -1.750000e+00  0  3860 0  1.594263e+01 -3.690884e+00 -1.254345e+01   4.094783e-01 1.741674e-01 -4.844264e-01 2.000000e-01  6.250000e-02  
-7.500000e-01  -7.500000e-01  -2.000000e+00  0  3797 0  -5.957449e+00 -5.957449e+00 1.287513e-07   2.312360e-08 -2.328055e-08 1.631947e-10 2.000000e-01  6.250000e-02  
-7.500000e-01  -7.500000e-01  -1.750000e+00  0  3861 0  -7.672626e+00 -7.672626e+00 -7.974153e+00   3.091736e-01 -3.091736e-01 1.224705e-09 2.000000e-01  6.250000e-02  
-5.000000e-01  -7.500000e-01  -2.000000e+00  0  3798 0  -2.780142e+00 -2.671050e+00 -3.580410e-08   7.916895e-09 -1.061879e-08 1.145207e-01 2.000000e-01  6.250000e-02  
-5.000000e-01  -7.500000e-01  -1.750000e+00  0  3862 0  1.201738e+00 -5.044141e+00 -1.732581e+01   6.010986e-01 -2.741934e-01 4.322299e-01 2.000000e-01  6.250000e-02  
-2.500000e-01  -7.500000e-01  -2.000000e+00  0  3799 0  2.977039e-01 9.095965e-01 -3.112627e-09   1.006509e-09 1.158500e-09 -2.453437e-01 2.000000e-01  6.250000e-02  
-2.500000e-01  -7.500000e-01  -1.750000e+00  0  3863 0  3.093455e+00 -4.126339e+00 -1.274833e+01   4.805396e-01 -1.341761e-01 -1.880236e-01 2.000000e-01  6.250000e-02  
0.000000e+00  -7.500000e-01  -2.000000e+00  0  3800 0  -1.751367e-09 -8.175211e-03 9.997391e-10   1.489188e-09 -1.074649e-10 1.954623e-09 2.000000e-01  6.250000e-02  
0.000000e+00  -7.500000e-01  -1.750000e+00  0  3864 0  -7.376363e-09 -9.754641e+00 -1.765546e+01   4.268065e-01 1.537855e-09 1.503638e-09 2.000000e-01  6.250000e-02  
-1.750000e+00  -5.000000e-01  -2.000000e+00  0  3045 0  -3.391847e+00 -4.206523e+00 -2.399482e-06   -1.376151e-08 1.090408e-07 -8.041655e-01 2.000000e-01  6.250000e-02  
-2.000000e+00  -5.000000e-01  -2.000000e+00  0  3044 0  6.904073e-07 -1.470720e+01 1.101909e-06   6.005125e-08 1.700379e-10 -2.637500e-08 2.000000e-01  6.250000e-02  
-1.750000e+00  -5.000000e-01  -1.750000e+00  0  3133 0  -1.516257e+01 -2.350774e+00 -1.516257e+01   7.102946e-01 -1.207851e-09 -7.102946e-01 2.000000e-01  6.250000e-02  
-2.000000e+00  -5.000000e-01  -1.750000e+00  0  3132 0  -1.817882e-06 -4.206523e+00 -3.391847e+00   8.041655e-01 -8.871072e-08 1.845502e-08 2.000000e-01  6.250000e-02  
-1.500000e+00  -5.000000e-01  -2.000000e+00  0  3046 0  9.872004e+00 -4.334521e+00 8.475185e-07   -4.099011e-08 -2.764311e-08 9.444683e-01 2.000000e-01  6.250000e-02  
-1.500000e+00  -5.000000e-01  -1.750000e+00  0  3134 0  2.171561e+01 4.201681e+00 -1.287935e+01   7.124294e-01 6.069298e-01 7.093257e-01 2.000000e-01  6.250000e-02  
-1.250000e+00  -5.000000e-01  -2.000000e+00  0  3803 0  2.548492e+00 -7.984502e+00 -6.914788e-08   1.000572e-08 -9.838705e-09 -1.385643e-01 2.000000e-01  6.250000e-02  
-1.250000e+00  -5.000000e-01  -1.750000e+00  0  3867 0  -7.153268e+00 1.512655e+00 -1.525589e+01   6.408682e-01 -8.534362e-01 1.303733e-01 2.000000e-01  6.250000e-02  
-1.000000e+00  -5.000000e-01  -2.000000e+00  0  3804 0  5.550189e-01 -5.537631e-01 4.060041e-09   1.330403e-08 -3.682788e-09 -9.852892e-01 2.000000e-01  6.250000e-02  
-1.000000e+00  -5.000000e-01  -1.750000e+00  0  3868 0  -5.782188e+00 -5.235298e+00 -1.293825e+01   2.483058e-01 -5.093093e-01 -4.902206e-01 2.000000e-01  6.250000e-02  
-7.500000e-01  -5.000000e-01  -2.000000e+00  0  3805 0  -2.671050e+00 -2.780142e+00 -3.331675e-08   1.051165e-08 -7.892510e-09 -1.145207e-01 2.000000e-01  6.250000e-02  
-7.500000e-01  -5.000000e-01  -1.750000e+00  0  3869 0  -5.044141e+00 1.201738e+00 -1.732581e+01   2.741934e-01 -6.010986e-01 -4.322299e-01 2.000000e-01  6.250000e-02  
-5.000000e-01  -5.000000e-01  -2.000000e+00  0  3806 0  -1.626847e+00 -1.626847e+00 1.346234e-08   2.511185e-09 -2.482225e-09 4.625059e-10 2.000000e-01  6.250000e-02  
-5.000000e-01  -5.000000e-01  -1.750000e+00  0  3870 0  2.412928e+00 2.412928e+00 -2.248339e+01   3.651567e-01 -3.651567e-01 4.541821e-10 2.000000e-01  6.250000e-02  
-2.500000e-01  -5.000000e-01  -2.000000e+00  0  3807 0  -1.628258e-01 -2.409680e+00 1.640695e-09   -1.178425e-09 8.393827e-10 -1.715264e-01 2.000000e-01  6.250000e-02  
-2.500000e-01  -5.000000e-01  -1.750000e+00  0  3871 0  2.849541e+00 -5.951787e+00 -1.602045e+01   2.006606e-01 -9.669616e-02 -2.080173e-01 2.000000e-01  6.250000e-02  
0.000000e+00  -5.000000e-01  -2.000000e+00  0  3808 0  8.304152e-10 -3.541410e+00 1.726076e-09   3.912903e-10 -1.039694e-10 -3.663362e-10 2.000000e-01  6.250000e-02  
0.000000e+00  -5.000000e-01  -1.750000e+00  0  3872 0  1.096860e-09 4.176403e+00 -2.027416e+01   1.960847e-01 1.623637e-11 -1.765701e-10 2.000000e-01  6.250000e-02  
-1.750000e+00  -2.500000e-01  -2.000000e+00  0  3056 0  -1.724758e+01 -1.284957e-01 5.237214e-07   2.377693e-08 4.412792e-08 -3.121947e-01 2.000000e-01  6.250000e-02  
-2.000000e+00  -2.500000e-01  -2.000000e+00  0  3055 0  -6.877068e-07 3.891962e+00 -9.413356e-07   5.856223e-08 1.880248e-10 -3.294532e-08 2.000000e-01  6.250000e-02  
-1.750000e+00  -2.500000e-01  -1.750000e+00  0  3144 0  -2.329078e-01 2.098703e+01 -2.329081e-01   3.877697e-01 5.280684e-09 -3.877696e-01 2.000000e-01  6.250000e-02  
-2.000000e+00  -2.500000e-01  -1.750000e+00  0  3143 0  3.855129e-07 -1.284956e-01 -1.724758e+01   3.121947e-01 -3.775091e-08 -1.079505e-08 2.000000e-01  6.250000e-02  
-1.500000e+00  -2.500000e-01  -2.000000e+00  0  3057 0  7.617637e+00 1.030706e+00 -1.567791e-07   -1.607658e-08 2.760408e-08 7.788968e-01 2.000000e-01  6.250000e-02  
-1.500000e+00  -2.500000e-01  -1.750000e+00  0  3145 0  1.615728e+01 -2.922481e+00 -4.686086e+00   4.559072e-01 6.473487e-01 8.850523e-01 2.000000e-01  6.250000e-02  
-1.250000e+00  -2.500000e-01  -2.000000e+00  0  3811 0  -1.568411e+00 2.507287e+00 -2.522465e-08   -9.260965e-09 -4.007514e-09 1.612549e-01 2.000000e-01  6.250000e-02  
-1.250000e+00  -2.500000e-01  -1.750000e+00  0  3875 0  -5.978064e+00 1.150865e+00 -1.575092e+01   3.776734e-01 -9.694949e-01 2.467390e-01 2.000000e-01  6.250000e-02  
-1.000000e+00  -2.500000e-01  -2.000000e+00  0  3812 0  -5.012747e-01 -9.101548e-01 8.619423e-09   9.854119e-10 8.796273e-10 3.335175e-01 2.000000e-01  6.250000e-02  
-1.000000e+00  -2.500000e-01  -1.750000e+00  0  3876 0  4.212799e+00 7.669679e+00 -9.745602e+00   2.187330e-01 -8.237319e-01 4.660113e-01 2.000000e-01  6.250000e-02  
-7.500000e-01  -2.500000e-01  -2.000000e+00  0  3813 0  9.095965e-01 2.977039e-01 -2.617651e-09   -1.350747e-09 -9.173274e-10 2.453437e-01 2.000000e-01  6.250000e-02  
-7.500000e-01  -2.500000e-01  -1.750000e+00  0  3877 0  -4.126339e+00 3.093455e+00 -1.274833e+01   1.341761e-01 -4.805396e-01 1.880236e-01 2.000000e-01  6.250000e-02  
-5.000000e-01  -2.500000e-01  -2.000000e+00  0  3814 0  -2.409680e+00 -1.628258e-01 3.387560e-10   -8.634848e-10 1.323832e-09 1.715264e-01 2.000000e-01  6.250000e-02  
-5.000000e-01  -2.500000e-01  -1.750000e+00  0  3878 0  -5.951787e+00 2.849541e+00 -1.602045e+01   9.669616e-02 -2.006606e-01 2.080173e-01 2.000000e-01  6.250000e-02  
-2.500000e-01  -2.500000e-01  -2.000000e+00  0  3815 0  4.292393e-01 4.292393e-01 -4.267421e-10   9.594259e-11 -1.248615e-11 -9.092322e-11 2.000000e-01  6.250000e-02  
-2.500000e-01  -2.500000e-01  -1.750000e+00  0  3879 0  2.855400e+00 2.855400e+00 -1.437930e+01   1.198191e-01 -1.198191e-01 4.816910e-11 2.000000e-01  6.250000e-02  
0.000000e+00  -2.500000e-01  -2.000000e+00  0  3816 0  2.276639e-10 -2.225714e-01 8.479468e-10   1.498942e-10 -4.975761e-11 -5.536511e-11 2.000000e-01  6.250000e-02  
0.000000e+00  -2.500000e-01  -1.750000e+00  0  3880 0  -8.080264e-10 3.506994e+00 -1.579769e+01   1.840090e-01 -1.469222e-10 -5.632079e-11 2.000000e-01  6.250000e-02  
-1.750000e+00  0.000000e+00  -2.000000e+00  0  3067 0  -2.319747e+00 -5.555125e-08 2.730343e-07   -1.048056e-11 1.592585e-08 -5.510911e-08 2.000000e-01  6.250000e-02  
-2.000000e+00  0.000000e+00  -2.000000e+00  0  3066 0  -1.124032e-06 -3.273851e-08 -1.544063e-06   6.219181e-10 1.411659e-10 3.755732e-10 2.000000e-01  6.250000e-02  
-1.750000e+00  0.000000e+00  -1.750000e+00  0  3155 0  -1.764734e+01 6.996700e-08 -1.764734e+01   3.522706e-08 1.768888e-08 -3.466449e-08 2.000000e-01  6.250000e-02  
-2.000000e+00  0.000000e+00  -1.750000e+00  0  3154 0  1.907613e-07 -5.773573e-08 -2.319747e+00   5.700035e-08 -1.272808e-08 1.923381e-10 2.000000e-01  6.250000e-02  
-1.500000e+00  0.000000e+00  -2.000000e+00  0  3068 0  7.656194e+00 -2.366715e-09 -3.252848e-07   -2.606895e-10 5.286987e-08 -5.854066e-09 2.000000e-01  6.250000e-02  
-1.500000e+00  0.000000e+00  -1.750000e+00  0  3156 0  2.251002e+01 -4.999584e-09 -1.321126e+01   7.880186e-09 5.486306e-01 -3.801665e-09 2.000000e-01  6.250000e-02  
-1.250000e+00  0.000000e+00  -2.000000e+00  0  3819 0  3.160909e+00 -5.700721e-09 4.159881e-08   -6.626380e-11 -1.229852e-08 -3.440932e-09 2.000000e-01  6.250000e-02  
-1.250000e+00  0.000000e+00  -1.750000e+00  0  3883 0  -8.835871e+00 1.936825e-09 -1.615309e+01   9.846741e-10 -9.841827e-01 -2.322851e-09 2.000000e-01  6.250000e-02  
-1.000000e+00  0.000000e+00  -2.000000e+00  0  3820 0  -1.323287e+00 1.539873e-09 -1.040198e-08   2.483291e-12 2.030088e-09 2.823336e-11 2.000000e-01  6.250000e-02  
-1.000000e+00  0.000000e+00  -1.750000e+00  0  3884 0  5.085485e+00 7.072805e-10 -1.368717e+01   1.931496e-10 -8.680818e-01 4.443593e-11 2.000000e-01  6.250000e-02  
-7.500000e-01  0.000000e+00  -2.000000e+00  0  3821 0  -8.175212e-03 -4.097709e-09 1.583527e-09   1.634290e-11 -1.515065e-09 -1.484219e-10 2.000000e-01  6.250000e-02  
-7.500000e-01  0.000000e+00  -1.750000e+00  0  3885 0  -9.754641e+00 4.251268e-10 -1.765546e+01   2.590207e-10 -4.268065e-01 -3.047024e-11 2.000000e-01  6.250000e-02  
-5.000000e-01  0.000000e+00  -2.000000e+00  0  3822 0  -3.541410e+00 1.247367e-09 1.186548e-09   6.711776e-11 -3.109134e-10 -2.319518e-10 2.000000e-01  6.250000e-02  
-5.000000e-01  0.000000e+00  -1.750000e+00  0  3886 0  4.176403e+00 -4.721899e-10 -2.027416e+01   1.510797e-10 -1.960847e-01 -8.107581e-11 2.000000e-01  6.250000e-02  
-2.500000e-01  0.000000e+00  -2.000000e+00  0  3823 0  -2.225714e-01 -1.181333e-10 1.544633e-09   7.968151e-11 -1.036186e-10 6.802154e-11 2.000000e-01  6.250000e-02  
-2.500000e-01  0.000000e+00  -1.750000e+00  0  3887 0  3.506994e+00 6.246873e-10 -1.579769e+01   1.431964e-11 -1.840090e-01 7.828843e-11 2.000000e-01  6.250000e-02  
0.000000e+00  0.000000e+00  -2.000000e+00  0  3824 0  -1.189529e-09 2.903244e-11 1.906037e-09   5.208528e-11 2.011810e-11 1.403430e-10 2.000000e-01  6.250000e-02  
0.000000e+00  0.000000e+00  -1.750000e+00  0  3888 0  6.913448e-10 -3.464134e-10 -1.919194e+01   2.815210e-12 -9.280386e-11 8.787328e-11 2.000000e-01  6.250000e-02  
-2.000000e+00  -2.000000e+00  -1.500000e+00  0  1306 0  -1.230937e-05 9.199410e-08 -8.860878e+00   2.230458e-08 1.581623e-06 -4.705448e-09 2.000000e-01  6.250000e-02  
-1.750000e+00  -2.000000e+00  -1.500000e+00  0  1307 0  -5.917862e+00 5.437548e-08 1.519629e+01   -2.023710e-08 -1.647542e+00 1.238176e-08 2.000000e-01  6.250000e-02  
-1.750000e+00  -1.750000e+00  -1.500000e+00  0  1318 0  -1.626666e+01 -1.626666e+01 9.612083e-01   2.103217e+00 -2.103217e+00 -2.997682e-09 2.000000e-01  6.250000e-02  
-2.000000e+00  -1.750000e+00  -1.500000e+00  0  1317 0  -1.784159e-06 -5.917854e+00 1.519628e+01   1.647542e+00 -1.768243e-07 2.474388e-07 2.000000e-01  6.250000e-02  
-1.500000e+00  -2.000000e+00  -1.500000e+00  0  1308 0  2.292437e+00 9.856798e-08 2.292437e+00   -2.703592e-08 8.206503e-08 3.968790e-08 2.000000e-01  6.250000e-02  
-1.500000e+00  -1.750000e+00  -1.500000e+00  0  1319 0  5.873101e+00 -1.848965e+01 5.873099e+00   2.169619e+00 -2.119403e-07 -2.169619e+00 2.000000e-01  6.250000e-02  
-1.250000e+00  -2.000000e+00  -1.500000e+00  0  2275 0  -6.933286e+00 4.390181e-08 5.954007e+00   2.174885e-10 8.810855e-01 -6.299800e-09 2.000000e-01  6.250000e-02  
-1.250000e+00  -1.750000e+00  -1.500000e+00  0  2283 0  -2.896824e+00 -1.320086e+01 1.006052e+01   1.745500e+00 1.304701e+00 1.292825e+00 2.000000e-01  6.250000e-02  
-1.000000e+00  -2.000000e+00  -1.500000e+00  0  2276 0  4.350978e+00 -3.560083e-09 1.328762e+01   -2.193190e-09 -9.878879e-01 -2.889156e-09 2.000000e-01  6.250000e-02  
-1.000000e+00  -1.750000e+00  -1.500000e+00  0  2284 0  2.281391e-01 -4.056757e+00 9.479588e+00   7.960003e-01 4.411482e-02 1.283464e+00 2.000000e-01  6.250000e-02  
-7.500000e-01  -2.000000e+00  -1.500000e+00  0  2277 0  -6.452035e+00 1.247212e-09 2.655319e+00   -1.028074e-09 1.766329e-01 -9.690487e-11 2.000000e-01  6.250000e-02  
-7.500000e-01  -1.750000e+00  -1.500000e+00  0  2285 0  -1.451409e+01 -1.068424e+01 2.148396e+01   1.745699e-01 -4.521982e-01 7.228574e-01 2.000000e-01  6.250000e-02  
-5.000000e-01  -2.000000e+00  -1.500000e+00  0  2278 0  -4.334519e+00 -8.144297e-09 9.872004e+00   9.036488e-11 9.444691e-01 1.763099e-09 2.000000e-01  6.250000e-02  
-5.000000e-01  -1.750000e+00  -1.500000e+00  0  2286 0  4.201679e+00 -1.287935e+01 2.171561e+01   6.069300e-01 7.093265e-01 7.124291e-01 2.000000e-01  6.250000e-02  