VARIABLES="X", "Y", "Z", "Maximum Refinment Level", "Temp_ID", "Thread","Ex (corner node)","Ey (corner node)","Ez (corner node)","Bx (center node)","By (center node)","Bz (center node)", "Local Time Step" , "log10(Local Particle Weight)" 
ZONE N=4913, E=4096, DATAPACKING=POINT, ZONETYPE=FEBRICK
-2.000000e+00  -2.000000e+00  -2.000000e+00  0  1064 0  -1.933873e-05 2.929803e-06 -3.020557e-05   7.431358e-12 -3.616646e-10 -4.508832e-10 2.000000e-01  6.250000e-02  
-1.750000e+00  -2.000000e+00  -2.000000e+00  0  1065 0  1.018185e+01 -2.957813e-07 6.002239e-06   5.395000e-09 -2.928916e-06 -8.796740e-08 2.000000e-01  6.250000e-02  
-1.750000e+00  -1.750000e+00  -2.000000e+00  0  1076 0  -3.341241e-01 -3.341057e-01 -3.607673e-05   1.484295e-06 -1.485732e-06 -7.781198e-07 2.000000e-01  6.250000e-02  
-2.000000e+00  -1.750000e+00  -2.000000e+00  0  1075 0  4.323210e-06 1.018187e+01 6.064292e-06   2.946196e-06 -1.457933e-09 -1.995719e-06 2.000000e-01  6.250000e-02  
-2.000000e+00  -2.000000e+00  -1.750000e+00  0  1185 0  4.368575e-06 -3.753878e-07 1.018185e+01   8.392606e-08 1.975342e-06 8.203816e-09 2.000000e-01  6.250000e-02  
-1.750000e+00  -2.000000e+00  -1.750000e+00  0  1186 0  -3.341371e-01 2.533180e-06 -3.341451e-01   4.402922e-08 -2.879384e-07 -3.886668e-08 2.000000e-01  6.250000e-02  
-1.750000e+00  -1.750000e+00  -1.750000e+00  0  1197 0  1.643180e+00 1.643197e+00 1.643166e+00   8.600626e-07 -2.536043e-07 -6.160597e-07 2.000000e-01  6.250000e-02  
-2.000000e+00  -1.750000e+00  -1.750000e+00  0  1196 0  -2.469919e-05 -3.341150e-01 -3.341414e-01   1.070191e-06 9.810646e-07 -9.911397e-07 2.000000e-01  6.250000e-02  
-1.500000e+00  -2.000000e+00  -2.000000e+00  0  1066 0  -8.860865e+00 1.138634e-06 -2.054577e-05   6.622481e-09 -2.239881e-06 -1.470803e-07 2.000000e-01  6.250000e-02  
-1.500000e+00  -1.750000e+00  -2.000000e+00  0  1077 0  1.519629e+01 -5.917856e+00 -3.662063e-06   -4.766324e-07 5.115423e-07 -1.647542e+00 2.000000e-01  6.250000e-02  
-1.500000e+00  -2.000000e+00  -1.750000e+00  0  1187 0  1.519630e+01 1.638521e-07 -5.917864e+00   -3.247678e-08 1.647543e+00 3.214076e-08 2.000000e-01  6.250000e-02  
-1.500000e+00  -1.750000e+00  -1.750000e+00  0  1198 0  9.611989e-01 -1.626667e+01 -1.626667e+01   1.741936e-07 2.103218e+00 -2.103219e+00 2.000000e-01  6.250000e-02  
-1.250000e+00  -2.000000e+00  -2.000000e+00  0  2099 0  -2.694822e+01 3.176413e-07 -5.346518e-06   1.815250e-09 -2.171161e-06 -1.343916e-07 2.000000e-01  6.250000e-02  
-1.250000e+00  -1.750000e+00  -2.000000e+00  0  2107 0  5.823757e+00 4.798415e-01 2.260820e-06   -5.911895e-07 -1.410368e-06 -1.121459e-01 2.000000e-01  6.250000e-02  
-1.250000e+00  -2.000000e+00  -1.750000e+00  0  2187 0  5.823759e+00 -1.049157e-07 4.798372e-01   -3.284488e-08 1.121463e-01 -9.230173e-08 2.000000e-01  6.250000e-02  
-1.250000e+00  -1.750000e+00  -1.750000e+00  0  2195 0  3.261582e+00 -1.479632e+01 -1.479633e+01   -2.981287e-07 -7.847244e-01 7.847236e-01 2.000000e-01  6.250000e-02  
-1.000000e+00  -2.000000e+00  -2.000000e+00  0  2100 0  3.900642e+00 3.245078e-07 -5.993362e-06   1.077975e-09 -3.140079e-07 -1.839285e-08 2.000000e-01  6.250000e-02  
-1.000000e+00  -1.750000e+00  -2.000000e+00  0  2108 0  1.692471e+01 -1.503058e+01 -1.667573e-06   -3.249833e-07 -4.281067e-07 2.099067e+00 2.000000e-01  6.250000e-02  
-1.000000e+00  -2.000000e+00  -1.750000e+00  0  2188 0  1.692471e+01 9.800413e-08 -1.503058e+01   -1.550976e-08 -2.099067e+00 -2.341246e-08 2.000000e-01  6.250000e-02  
-1.000000e+00  -1.750000e+00  -1.750000e+00  0  2196 0  8.244593e+00 -4.281530e+00 -4.281530e+00   -1.861374e-07 -1.749940e+00 1.749940e+00 2.000000e-01  6.250000e-02  
-7.500000e-01  -2.000000e+00  -2.000000e+00  0  2101 0  -1.931975e+01 -4.763546e-08 9.484262e-07   8.707723e-10 -1.650020e-07 -1.069827e-08 2.000000e-01  6.250000e-02  
-7.500000e-01  -1.750000e+00  -2.000000e+00  0  2109 0  -3.975954e+00 -1.816197e+01 -9.647740e-07   -2.569476e-07 -1.154418e-07 1.615961e+00 2.000000e-01  6.250000e-02  
-7.500000e-01  -2.000000e+00  -1.750000e+00  0  2189 0  -3.975953e+00 4.199547e-08 -1.816197e+01   -1.344768e-08 -1.615960e+00 -8.513423e-09 2.000000e-01  6.250000e-02  
-7.500000e-01  -1.750000e+00  -1.750000e+00  0  2197 0  -1.818797e+01 -4.426284e+00 -4.426284e+00   -4.969045e-08 -1.001605e+00 1.001605e+00 2.000000e-01  6.250000e-02  
-5.000000e-01  -2.000000e+00  -2.000000e+00  0  2102 0  -1.470717e+01 -1.920497e-07 3.075630e-06   4.888292e-10 -6.293781e-08 -1.923591e-09 2.000000e-01  6.250000e-02  
-5.000000e-01  -1.750000e+00  -2.000000e+00  0  2110 0  -4.206522e+00 -3.391849e+00 -2.729629e-06   -1.099469e-08 2.304382e-08 8.041647e-01 2.000000e-01  6.250000e-02  
-5.000000e-01  -2.000000e+00  -1.750000e+00  0  2190 0  -4.206522e+00 1.605515e-07 -3.391848e+00   3.138660e-10 -8.041646e-01 1.320018e-09 2.000000e-01  6.250000e-02  
-5.000000e-01  -1.750000e+00  -1.750000e+00  0  2198 0  -2.350764e+00 -1.516257e+01 -1.516257e+01   3.329075e-08 -7.102943e-01 7.102942e-01 2.000000e-01  6.250000e-02  
-2.500000e-01  -2.000000e+00  -2.000000e+00  0  2103 0  3.891989e+00 4.033533e-08 -6.944507e-07   -9.736707e-11 -1.435515e-07 -9.540348e-09 2.000000e-01  6.250000e-02  
-2.500000e-01  -1.750000e+00  -2.000000e+00  0  2111 0  -1.284955e-01 -1.724758e+01 6.935856e-07   3.021767e-08 -6.692451e-08 3.121929e-01 2.000000e-01  6.250000e-02  
-2.500000e-01  -2.000000e+00  -1.750000e+00  0  2191 0  -1.284945e-01 -4.130601e-08 -1.724758e+01   2.172034e-09 -3.121931e-01 -4.905163e-09 2.000000e-01  6.250000e-02  
-2.500000e-01  -1.750000e+00  -1.750000e+00  0  2199 0  2.098705e+01 -2.329173e-01 -2.329184e-01   1.693268e-08 -3.877689e-01 3.877687e-01 2.000000e-01  6.250000e-02  
0.000000e+00  -2.000000e+00  -2.000000e+00  0  2104 0  6.116993e-07 8.153781e-08 -1.339402e-06   -2.367225e-10 -5.454566e-10 -2.267153e-11 2.000000e-01  6.250000e-02  
0.000000e+00  -1.750000e+00  -2.000000e+00  0  2112 0  2.322482e-06 -2.319740e+00 3.988495e-07   3.121762e-08 -6.943116e-10 -1.120253e-06 2.000000e-01  6.250000e-02  
0.000000e+00  -2.000000e+00  -1.750000e+00  0  2192 0  2.328502e-06 -1.993445e-08 -2.319741e+00   1.383375e-09 1.120539e-06 3.060869e-10 2.000000e-01  6.250000e-02  
0.000000e+00  -1.750000e+00  -1.750000e+00  0  2200 0  -5.151937e-06 -1.764734e+01 -1.764734e+01   -4.636475e-08 8.171436e-07 -8.171152e-07 2.000000e-01  6.250000e-02  
-1.750000e+00  -1.500000e+00  -2.000000e+00  0  1087 0  -5.917861e+00 1.519631e+01 -3.635219e-06   -5.107548e-07 4.747479e-07 1.647543e+00 2.000000e-01  6.250000e-02  
-2.000000e+00  -1.500000e+00  -2.000000e+00  0  1086 0  -1.353348e-05 -8.860856e+00 -2.049378e-05   2.241567e-06 -2.117932e-09 -1.519528e-06 2.000000e-01  6.250000e-02  
-1.750000e+00  -1.500000e+00  -1.750000e+00  0  1208 0  -1.626667e+01 9.611849e-01 -1.626667e+01   -2.103219e+00 -1.128684e-07 2.103219e+00 2.000000e-01  6.250000e-02  
-2.000000e+00  -1.500000e+00  -1.750000e+00  0  1207 0  -2.424598e-06 1.519631e+01 -5.917862e+00   -1.647544e+00 -3.264588e-07 3.409130e-07 2.000000e-01  6.250000e-02  
-1.500000e+00  -1.500000e+00  -2.000000e+00  0  1088 0  2.292439e+00 2.292439e+00 -5.988645e-07   -1.593437e-06 1.591572e-06 3.938540e-08 2.000000e-01  6.250000e-02  
-1.500000e+00  -1.500000e+00  -1.750000e+00  0  1209 0  5.873091e+00 5.873094e+00 -1.848965e+01   -2.169620e+00 2.169619e+00 -5.706221e-07 2.000000e-01  6.250000e-02  
-1.250000e+00  -1.500000e+00  -2.000000e+00  0  2115 0  -6.933285e+00 5.954009e+00 -3.481355e-06   2.108965e-07 -5.226598e-07 -8.810848e-01 2.000000e-01  6.250000e-02  
-1.250000e+00  -1.500000e+00  -1.750000e+00  0  2203 0  -2.896817e+00 1.006053e+01 -1.320086e+01   -1.745500e+00 -1.292825e+00 -1.304701e+00 2.000000e-01  6.250000e-02  
-1.000000e+00  -1.500000e+00  -2.000000e+00  0  2116 0  4.350978e+00 1.328762e+01 4.759233e-08   1.336845e-07 -5.304263e-07 9.878886e-01 2.000000e-01  6.250000e-02  
-1.000000e+00  -1.500000e+00  -1.750000e+00  0  2204 0  2.281439e-01 9.479585e+00 -4.056761e+00   -7.960006e-01 -1.283464e+00 -4.411392e-02 2.000000e-01  6.250000e-02  
-7.500000e-01  -1.500000e+00  -2.000000e+00  0  2117 0  -6.452035e+00 2.655316e+00 5.237881e-07   8.409925e-09 8.496178e-09 -1.766329e-01 2.000000e-01  6.250000e-02  
-7.500000e-01  -1.500000e+00  -1.750000e+00  0  2205 0  -1.451409e+01 2.148396e+01 -1.068423e+01   -1.745698e-01 -7.228574e-01 4.521982e-01 2.000000e-01  6.250000e-02  
-5.000000e-01  -1.500000e+00  -2.000000e+00  0  2118 0  -4.334524e+00 9.872003e+00 1.072580e-06   5.070545e-08 5.557256e-08 -9.444695e-01 2.000000e-01  6.250000e-02  
-5.000000e-01  -1.500000e+00  -1.750000e+00  0  2206 0  4.201678e+00 2.171560e+01 -1.287935e+01   -6.069301e-01 -7.124295e-01 -7.093269e-01 2.000000e-01  6.250000e-02  
-2.500000e-01  -1.500000e+00  -2.000000e+00  0  2119 0  1.030709e+00 7.617639e+00 -1.578189e-07   -2.398174e-08 1.893383e-08 -7.788985e-01 2.000000e-01  6.250000e-02  
-2.500000e-01  -1.500000e+00  -1.750000e+00  0  2207 0  -2.922482e+00 1.615728e+01 -4.686086e+00   -6.473492e-01 -4.559073e-01 -8.850538e-01 2.000000e-01  6.250000e-02  
0.000000e+00  -1.500000e+00  -2.000000e+00  0  2120 0  3.400534e-09 7.656201e+00 -3.511354e-07   -5.647064e-08 -5.181356e-10 -3.606497e-07 2.000000e-01  6.250000e-02  
0.000000e+00  -1.500000e+00  -1.750000e+00  0  2208 0  8.030731e-07 2.251001e+01 -1.321126e+01   -5.486312e-01 2.436421e-07 -2.614948e-07 2.000000e-01  6.250000e-02  
-1.750000e+00  -1.250000e+00  -2.000000e+00  0  3012 0  4.798393e-01 5.823763e+00 2.270497e-06   1.406176e-06 5.888405e-07 1.121468e-01 2.000000e-01  6.250000e-02  
-2.000000e+00  -1.250000e+00  -2.000000e+00  0  3011 0  -3.583873e-06 -2.694822e+01 -5.357105e-06   2.165585e-06 -1.079481e-09 -1.452206e-06 2.000000e-01  6.250000e-02  
-1.750000e+00  -1.250000e+00  -1.750000e+00  0  3100 0  -1.479632e+01 3.261583e+00 -1.479632e+01   7.847231e-01 6.566959e-08 -7.847229e-01 2.000000e-01  6.250000e-02  
-2.000000e+00  -1.250000e+00  -1.750000e+00  0  3099 0  1.531845e-06 5.823764e+00 4.798381e-01   -1.121468e-01 -3.761708e-07 -9.433343e-07 2.000000e-01  6.250000e-02  
-1.500000e+00  -1.250000e+00  -2.000000e+00  0  3013 0  5.954007e+00 -6.933286e+00 -3.484662e-06   5.222662e-07 -2.124260e-07 8.810852e-01 2.000000e-01  6.250000e-02  
-1.500000e+00  -1.250000e+00  -1.750000e+00  0  3101 0  1.006052e+01 -2.896820e+00 -1.320086e+01   1.292825e+00 1.745501e+00 1.304701e+00 2.000000e-01  6.250000e-02  
-1.250000e+00  -1.250000e+00  -2.000000e+00  0  3779 0  -2.077856e+00 -2.077858e+00 4.594612e-07   4.956243e-07 -4.958504e-07 -1.778867e-07 2.000000e-01  6.250000e-02  
-1.250000e+00  -1.250000e+00  -1.750000e+00  0  3843 0  -4.502654e+00 -4.502654e+00 -1.139270e+01   4.393736e-01 -4.393736e-01 -1.605224e-07 2.000000e-01  6.250000e-02  
-1.000000e+00  -1.250000e+00  -2.000000e+00  0  3780 0  7.005711e+00 -9.606346e-01 -3.398714e-07   2.633324e-07 -3.548661e-07 -1.799077e+00 2.000000e-01  6.250000e-02  
-1.000000e+00  -1.250000e+00  -1.750000e+00  0  3844 0  4.690440e+00 -5.145818e+00 -1.500599e+01   3.967723e-01 -8.007036e-01 -2.586570e+00 2.000000e-01  6.250000e-02  
-7.500000e-01  -1.250000e+00  -2.000000e+00  0  3781 0  -1.424086e+01 -4.669339e+00 -2.026852e-07   -1.852409e-08 5.697625e-08 -3.799828e-01 2.000000e-01  6.250000e-02  
-7.500000e-01  -1.250000e+00  -1.750000e+00  0  3845 0  -5.304712e+00 -6.351335e+00 -1.818639e+01   7.854593e-01 -9.634997e-01 -4.415547e-01 2.000000e-01  6.250000e-02  
-5.000000e-01  -1.250000e+00  -2.000000e+00  0  3782 0  -7.984499e+00 2.548492e+00 -6.732698e-08   1.694784e-08 -7.732405e-09 1.385645e-01 2.000000e-01  6.250000e-02  
-5.000000e-01  -1.250000e+00  -1.750000e+00  0  3846 0  1.512654e+00 -7.153268e+00 -1.525589e+01   8.534365e-01 -6.408684e-01 -1.303731e-01 2.000000e-01  6.250000e-02  
-2.500000e-01  -1.250000e+00  -2.000000e+00  0  3783 0  2.507287e+00 -1.568413e+00 -3.114784e-08   9.850957e-09 1.206938e-08 -1.612551e-01 2.000000e-01  6.250000e-02  
-2.500000e-01  -1.250000e+00  -1.750000e+00  0  3847 0  1.150865e+00 -5.978064e+00 -1.575092e+01   9.694951e-01 -3.776735e-01 -2.467391e-01 2.000000e-01  6.250000e-02  
0.000000e+00  -1.250000e+00  -2.000000e+00  0  3784 0  1.564997e-07 3.160910e+00 5.330226e-08   1.928850e-08 -9.220927e-11 -4.215803e-08 2.000000e-01  6.250000e-02  
0.000000e+00  -1.250000e+00  -1.750000e+00  0  3848 0  -1.498243e-07 -8.835873e+00 -1.615309e+01   9.841827e-01 -7.152036e-09 -2.882450e-08 2.000000e-01  6.250000e-02  
-1.750000e+00  -1.000000e+00  -2.000000e+00  0  3023 0  -1.503058e+01 1.692471e+01 -1.656768e-06   4.288500e-07 3.195584e-07 -2.099067e+00 2.000000e-01  6.250000e-02  
-2.000000e+00  -1.000000e+00  -2.000000e+00  0  3022 0  -3.919215e-06 3.900635e+00 -5.950575e-06   3.132786e-07 -2.005445e-10 -2.167658e-07 2.000000e-01  6.250000e-02  
-1.750000e+00  -1.000000e+00  -1.750000e+00  0  3111 0  -4.281531e+00 8.244597e+00 -4.281532e+00   1.749940e+00 8.398069e-08 -1.749940e+00 2.000000e-01  6.250000e-02  
-2.000000e+00  -1.000000e+00  -1.750000e+00  0  3110 0  -1.125613e-06 1.692471e+01 -1.503058e+01   2.099067e+00 -1.964424e-07 -2.889072e-07 2.000000e-01  6.250000e-02  
-1.500000e+00  -1.000000e+00  -2.000000e+00  0  3024 0  1.328762e+01 4.350979e+00 4.670187e-08   5.313388e-07 -1.345131e-07 -9.878881e-01 2.000000e-01  6.250000e-02  
-1.500000e+00  -1.000000e+00  -1.750000e+00  0  3112 0  9.479587e+00 2.281425e-01 -4.056759e+00   1.283464e+00 7.960003e-01 4.411436e-02 2.000000e-01  6.250000e-02  
-1.250000e+00  -1.000000e+00  -2.000000e+00  0  3787 0  -9.606351e-01 7.005712e+00 -3.382651e-07   3.552068e-07 -2.632367e-07 1.799077e+00 2.000000e-01  6.250000e-02  
-1.250000e+00  -1.000000e+00  -1.750000e+00  0  3851 0  -5.145818e+00 4.690440e+00 -1.500599e+01   8.007036e-01 -3.967723e-01 2.586570e+00 2.000000e-01  6.250000e-02  
-1.000000e+00  -1.000000e+00  -2.000000e+00  0  3788 0  -8.546413e+00 -8.546414e+00 -3.983419e-08   5.763824e-08 -5.787726e-08 -3.404525e-08 2.000000e-01  6.250000e-02  
-1.000000e+00  -1.000000e+00  -1.750000e+00  0  3852 0  8.213288e+00 8.213288e+00 -1.341381e+01   -7.613983e-02 7.613985e-02 -1.975397e-08 2.000000e-01  6.250000e-02  
-7.500000e-01  -1.000000e+00  -2.000000e+00  0  3789 0  9.947589e-01 5.717151e+00 -1.057006e-08   -3.244774e-08 -4.008123e-09 1.356886e+00 2.000000e-01  6.250000e-02  
-7.500000e-01  -1.000000e+00  -1.750000e+00  0  3853 0  -3.690884e+00 1.594263e+01 -1.254345e+01   -1.741673e-01 -4.094785e-01 4.844262e-01 2.000000e-01  6.250000e-02  
-5.000000e-01  -1.000000e+00  -2.000000e+00  0  3790 0  -5.537626e-01 5.550170e-01 5.701425e-09   5.402849e-09 -1.741864e-08 9.852890e-01 2.000000e-01  6.250000e-02  
-5.000000e-01  -1.000000e+00  -1.750000e+00  0  3854 0  -5.235299e+00 -5.782187e+00 -1.293825e+01   5.093095e-01 -2.483060e-01 4.902206e-01 2.000000e-01  6.250000e-02  
-2.500000e-01  -1.000000e+00  -2.000000e+00  0  3791 0  -9.101556e-01 -5.012750e-01 1.129096e-08   -5.817913e-10 -1.470524e-09 -3.335177e-01 2.000000e-01  6.250000e-02  
-2.500000e-01  -1.000000e+00  -1.750000e+00  0  3855 0  7.669680e+00 4.212796e+00 -9.745604e+00   8.237318e-01 -2.187331e-01 -4.660113e-01 2.000000e-01  6.250000e-02  
0.000000e+00  -1.000000e+00  -2.000000e+00  0  3792 0  3.999600e-09 -1.323285e+00 -1.122632e-08   -2.064327e-09 -7.063844e-11 1.804158e-09 2.000000e-01  6.250000e-02  
0.000000e+00  -1.000000e+00  -1.750000e+00  0  3856 0  5.982956e-09 5.085487e+00 -1.368717e+01   8.680815e-01 7.774026e-09 8.129893e-10 2.000000e-01  6.250000e-02  
-1.750000e+00  -7.500000e-01  -2.000000e+00  0  3034 0  -1.816197e+01 -3.975952e+00 -9.757116e-07   1.149965e-07 2.551629e-07 -1.615960e+00 2.000000e-01  6.250000e-02  
-2.000000e+00  -7.500000e-01  -2.000000e+00  0  3033 0  6.032147e-07 -1.931975e+01 9.387419e-07   1.652110e-07 -4.637121e-11 -1.170769e-07 2.000000e-01  6.250000e-02  
-1.750000e+00  -7.500000e-01  -1.750000e+00  0  3122 0  -4.426273e+00 -1.818798e+01 -4.426273e+00   1.001605e+00 6.042303e-09 -1.001605e+00 2.000000e-01  6.250000e-02  
-2.000000e+00  -7.500000e-01  -1.750000e+00  0  3121 0  -6.106214e-07 -3.975952e+00 -1.816197e+01   1.615960e+00 -1.689938e-07 -7.867619e-08 2.000000e-01  6.250000e-02  
-1.500000e+00  -7.500000e-01  -2.000000e+00  0  3035 0  2.655316e+00 -6.452036e+00 5.173421e-07   -8.938523e-09 -7.207065e-09 1.766325e-01 2.000000e-01  6.250000e-02  
-1.500000e+00  -7.500000e-01  -1.750000e+00  0  3123 0  2.148396e+01 -1.451409e+01 -1.068424e+01   7.228574e-01 1.745695e-01 -4.521986e-01 2.000000e-01  6.250000e-02  
-1.250000e+00  -7.500000e-01  -2.000000e+00  0  3795 0  -4.669339e+00 -1.424086e+01 -2.034027e-07   -5.714324e-08 1.876393e-08 3.799828e-01 2.000000e-01  6.250000e-02  
-1.250000e+00  -7.500000e-01  -1.750000e+00  0  3859 0  -6.351335e+00 -5.304713e+00 -1.818639e+01   9.634997e-01 -7.854594e-01 4.415547e-01 2.000000e-01  6.250000e-02  
-1.000000e+00  -7.500000e-01  -2.000000e+00  0  3796 0  5.717151e+00 9.947588e-01 -1.173780e-08   3.951863e-09 3.210617e-08 -1.356886e+00 2.000000e-01  6.250000e-02  
-1.000000e+00  -7.500000e-01  -1.750000e+00  0  3860 0  1.594263e+01 -3.690884e+00 -1.254345e+01   4.094785e-01 1.741673e-01 -4.844262e-01 2.000000e-01  6.250000e-02  
-7.500000e-01  -7.500000e-01  -2.000000e+00  0  3797 0  -5.957448e+00 -5.957448e+00 1.662520e-07   2.903879e-08 -2.920942e-08 -7.282760e-10 2.000000e-01  6.250000e-02  
-7.500000e-01  -7.500000e-01  -1.750000e+00  0  3861 0  -7.672627e+00 -7.672627e+00 -7.974152e+00   3.091738e-01 -3.091738e-01 1.692755e-09 2.000000e-01  6.250000e-02  
-5.000000e-01  -7.500000e-01  -2.000000e+00  0  3798 0  -2.780143e+00 -2.671052e+00 -4.598240e-08   9.838541e-09 -1.334412e-08 1.145208e-01 2.000000e-01  6.250000e-02  
-5.000000e-01  -7.500000e-01  -1.750000e+00  0  3862 0  1.201736e+00 -5.044143e+00 -1.732581e+01   6.010986e-01 -2.741936e-01 4.322300e-01 2.000000e-01  6.250000e-02  
-2.500000e-01  -7.500000e-01  -2.000000e+00  0  3799 0  2.977028e-01 9.095964e-01 -2.780241e-09   1.032591e-09 1.751424e-09 -2.453438e-01 2.000000e-01  6.250000e-02  
-2.500000e-01  -7.500000e-01  -1.750000e+00  0  3863 0  3.093458e+00 -4.126337e+00 -1.274833e+01   4.805394e-01 -1.341761e-01 -1.880237e-01 2.000000e-01  6.250000e-02  
0.000000e+00  -7.500000e-01  -2.000000e+00  0  3800 0  -5.043698e-09 -8.175600e-03 9.411132e-10   1.875319e-09 -4.516110e-11 2.003769e-09 2.000000e-01  6.250000e-02  
0.000000e+00  -7.500000e-01  -1.750000e+00  0  3864 0  -7.177472e-09 -9.754643e+00 -1.765546e+01   4.268063e-01 1.674558e-09 1.617459e-09 2.000000e-01  6.250000e-02  
-1.750000e+00  -5.000000e-01  -2.000000e+00  0  3045 0  -3.391846e+00 -4.206521e+00 -2.698388e-06   -2.325964e-08 9.937297e-09 -8.041655e-01 2.000000e-01  6.250000e-02  
-2.000000e+00  -5.000000e-01  -2.000000e+00  0  3044 0  2.016905e-06 -1.470719e+01 3.078648e-06   6.341601e-08 -2.015239e-10 -2.952076e-08 2.000000e-01  6.250000e-02  
-1.750000e+00  -5.000000e-01  -1.750000e+00  0  3133 0  -1.516257e+01 -2.350779e+00 -1.516257e+01   7.102949e-01 -1.693842e-08 -7.102949e-01 2.000000e-01  6.250000e-02  
-2.000000e+00  -5.000000e-01  -1.750000e+00  0  3132 0  -1.843194e-06 -4.206521e+00 -3.391845e+00   8.041655e-01 -1.124795e-08 2.312702e-08 2.000000e-01  6.250000e-02  
-1.500000e+00  -5.000000e-01  -2.000000e+00  0  3046 0  9.872004e+00 -4.334525e+00 1.065746e-06   -5.544338e-08 -5.018638e-08 9.444686e-01 2.000000e-01  6.250000e-02  
-1.500000e+00  -5.000000e-01  -1.750000e+00  0  3134 0  2.171560e+01 4.201684e+00 -1.287935e+01   7.124298e-01 6.069300e-01 7.093259e-01 2.000000e-01  6.250000e-02  
-1.250000e+00  -5.000000e-01  -2.000000e+00  0  3803 0  2.548492e+00 -7.984499e+00 -6.650070e-08   7.912770e-09 -1.733708e-08 -1.385643e-01 2.000000e-01  6.250000e-02  
-1.250000e+00  -5.000000e-01  -1.750000e+00  0  3867 0  -7.153268e+00 1.512653e+00 -1.525589e+01   6.408684e-01 -8.534365e-01 1.303733e-01 2.000000e-01  6.250000e-02  
-1.000000e+00  -5.000000e-01  -2.000000e+00  0  3804 0  5.550172e-01 -5.537626e-01 4.262380e-09   1.747650e-08 -5.591463e-09 -9.852890e-01 2.000000e-01  6.250000e-02  
-1.000000e+00  -5.000000e-01  -1.750000e+00  0  3868 0  -5.782187e+00 -5.235299e+00 -1.293825e+01   2.483060e-01 -5.093095e-01 -4.902206e-01 2.000000e-01  6.250000e-02  
-7.500000e-01  -5.000000e-01  -2.000000e+00  0  3805 0  -2.671052e+00 -2.780143e+00 -4.483689e-08   1.327634e-08 -9.940233e-09 -1.145208e-01 2.000000e-01  6.250000e-02  
-7.500000e-01  -5.000000e-01  -1.750000e+00  0  3869 0  -5.044142e+00 1.201736e+00 -1.732581e+01   2.741936e-01 -6.010986e-01 -4.322300e-01 2.000000e-01  6.250000e-02  
-5.000000e-01  -5.000000e-01  -2.000000e+00  0  3806 0  -1.626845e+00 -1.626845e+00 1.855853e-08   3.075835e-09 -3.107306e-09 1.026711e-09 2.000000e-01  6.250000e-02  
-5.000000e-01  -5.000000e-01  -1.750000e+00  0  3870 0  2.412929e+00 2.412929e+00 -2.248339e+01   3.651567e-01 -3.651567e-01 9.828436e-10 2.000000e-01  6.250000e-02  
-2.500000e-01  -5.000000e-01  -2.000000e+00  0  3807 0  -1.628253e-01 -2.409681e+00 9.076432e-10   -1.638908e-09 1.206672e-09 -1.715266e-01 2.000000e-01  6.250000e-02  
-2.500000e-01  -5.000000e-01  -1.750000e+00  0  3871 0  2.849540e+00 -5.951791e+00 -1.602045e+01   2.006607e-01 -9.669613e-02 -2.080175e-01 2.000000e-01  6.250000e-02  
0.000000e+00  -5.000000e-01  -2.000000e+00  0  3808 0  2.587186e-09 -3.541409e+00 1.936896e-09   4.848245e-10 5.887985e-12 -3.799383e-10 2.000000e-01  6.250000e-02  
0.000000e+00  -5.000000e-01  -1.750000e+00  0  3872 0  2.801281e-10 4.176404e+00 -2.027416e+01   1.960847e-01 1.610577e-11 -1.935949e-10 2.000000e-01  6.250000e-02  
-1.750000e+00  -2.500000e-01  -2.000000e+00  0  3056 0  -1.724758e+01 -1.284994e-01 6.823712e-07   6.771698e-08 -3.087144e-08 -3.121944e-01 2.000000e-01  6.250000e-02  
-2.000000e+00  -2.500000e-01  -2.000000e+00  0  3055 0  -4.619460e-07 3.891964e+00 -6.850623e-07   1.445186e-07 -2.376347e-10 -9.261676e-08 2.000000e-01  6.250000e-02  
-1.750000e+00  -2.500000e-01  -1.750000e+00  0  3144 0  -2.329141e-01 2.098704e+01 -2.329144e-01   3.877696e-01 -6.051322e-09 -3.877696e-01 2.000000e-01  6.250000e-02  
-2.000000e+00  -2.500000e-01  -1.750000e+00  0  3143 0  4.604772e-07 -1.284991e-01 -1.724758e+01   3.121944e-01 1.825274e-08 -4.226612e-08 2.000000e-01  6.250000e-02  
-1.500000e+00  -2.500000e-01  -2.000000e+00  0  3057 0  7.617639e+00 1.030708e+00 -1.538866e-07   -1.861140e-08 2.421874e-08 7.788976e-01 2.000000e-01  6.250000e-02  
-1.500000e+00  -2.500000e-01  -1.750000e+00  0  3145 0  1.615728e+01 -2.922481e+00 -4.686087e+00   4.559075e-01 6.473492e-01 8.850531e-01 2.000000e-01  6.250000e-02  
-1.250000e+00  -2.500000e-01  -2.000000e+00  0  3811 0  -1.568413e+00 2.507287e+00 -3.036803e-08   -1.198267e-08 -1.018764e-08 1.612551e-01 2.000000e-01  6.250000e-02  
-1.250000e+00  -2.500000e-01  -1.750000e+00  0  3875 0  -5.978064e+00 1.150865e+00 -1.575092e+01   3.776735e-01 -9.694951e-01 2.467391e-01 2.000000e-01  6.250000e-02  
-1.000000e+00  -2.500000e-01  -2.000000e+00  0  3812 0  -5.012750e-01 -9.101557e-01 1.106245e-08   1.411284e-09 5.814567e-10 3.335177e-01 2.000000e-01  6.250000e-02  
-1.000000e+00  -2.500000e-01  -1.750000e+00  0  3876 0  4.212796e+00 7.669680e+00 -9.745604e+00   2.187331e-01 -8.237318e-01 4.660113e-01 2.000000e-01  6.250000e-02  
-7.500000e-01  -2.500000e-01  -2.000000e+00  0  3813 0  9.095964e-01 2.977028e-01 -3.072818e-09   -1.850756e-09 -1.199037e-09 2.453438e-01 2.000000e-01  6.250000e-02  
-7.500000e-01  -2.500000e-01  -1.750000e+00  0  3877 0  -4.126337e+00 3.093458e+00 -1.274833e+01   1.341761e-01 -4.805394e-01 1.880237e-01 2.000000e-01  6.250000e-02  
-5.000000e-01  -2.500000e-01  -2.000000e+00  0  3814 0  -2.409681e+00 -1.628253e-01 8.299795e-10   -1.213595e-09 1.642644e-09 1.715266e-01 2.000000e-01  6.250000e-02  
-5.000000e-01  -2.500000e-01  -1.750000e+00  0  3878 0  -5.951791e+00 2.849540e+00 -1.602045e+01   9.669614e-02 -2.006607e-01 2.080175e-01 2.000000e-01  6.250000e-02  
-2.500000e-01  -2.500000e-01  -2.000000e+00  0  3815 0  4.292394e-01 4.292394e-01 -9.777907e-10   3.171066e-11 8.319567e-11 -2.021154e-10 2.000000e-01  6.250000e-02  
-2.500000e-01  -2.500000e-01  -1.750000e+00  0  3879 0  2.855401e+00 2.855401e+00 -1.437930e+01   1.198192e-01 -1.198192e-01 -6.335656e-11 2.000000e-01  6.250000e-02  
0.000000e+00  -2.500000e-01  -2.000000e+00  0  3816 0  -1.423254e-09 -2.225700e-01 1.991455e-09   2.043481e-10 6.504142e-11 -1.367288e-10 2.000000e-01  6.250000e-02  
0.000000e+00  -2.500000e-01  -1.750000e+00  0  3880 0  4.128605e-11 3.506997e+00 -1.579769e+01   1.840091e-01 -1.221859e-10 -7.364727e-11 2.000000e-01  6.250000e-02  
-1.750000e+00  0.000000e+00  -2.000000e+00  0  3067 0  -2.319742e+00 -2.241416e-07 3.932284e-07   4.433998e-11 -3.075331e-08 -1.189903e-07 2.000000e-01  6.250000e-02  
-2.000000e+00  0.000000e+00  -2.000000e+00  0  3066 0  -9.069442e-07 -9.638806e-08 -1.339940e-06   8.794349e-10 -1.262045e-10 -4.690198e-10 2.000000e-01  6.250000e-02  
-1.750000e+00  0.000000e+00  -1.750000e+00  0  3155 0  -1.764734e+01 4.660300e-07 -1.764734e+01   8.432873e-08 1.517693e-08 -8.416393e-08 2.000000e-01  6.250000e-02  
-2.000000e+00  0.000000e+00  -1.750000e+00  0  3154 0  2.604168e-07 -2.243429e-07 -2.319742e+00   1.194953e-07 1.972649e-08 -1.203433e-10 2.000000e-01  6.250000e-02  
-1.500000e+00  0.000000e+00  -2.000000e+00  0  3068 0  7.656200e+00 -5.142748e-09 -3.488004e-07   -4.203834e-11 5.645604e-08 -3.343765e-08 2.000000e-01  6.250000e-02  
-1.500000e+00  0.000000e+00  -1.750000e+00  0  3156 0  2.251001e+01 -6.929117e-08 -1.321126e+01   2.409400e-08 5.486311e-01 -2.399453e-08 2.000000e-01  6.250000e-02  
-1.250000e+00  0.000000e+00  -2.000000e+00  0  3819 0  3.160910e+00 -1.568417e-08 5.366225e-08   9.024945e-11 -1.930816e-08 -5.012782e-09 2.000000e-01  6.250000e-02  
-1.250000e+00  0.000000e+00  -1.750000e+00  0  3883 0  -8.835873e+00 1.315655e-08 -1.615309e+01   -6.036792e-11 -9.841827e-01 -3.393189e-09 2.000000e-01  6.250000e-02  
-1.000000e+00  0.000000e+00  -2.000000e+00  0  3820 0  -1.323285e+00 6.990388e-10 -1.203549e-08   -6.339895e-11 2.200079e-09 1.556622e-10 2.000000e-01  6.250000e-02  
-1.000000e+00  0.000000e+00  -1.750000e+00  0  3884 0  5.085487e+00 -2.699175e-11 -1.368717e+01   8.394087e-10 -8.680815e-01 7.309610e-11 2.000000e-01  6.250000e-02  
-7.500000e-01  0.000000e+00  -2.000000e+00  0  3821 0  -8.175600e-03 -1.561361e-09 1.694791e-09   5.892759e-12 -2.020637e-09 -9.026966e-11 2.000000e-01  6.250000e-02  
-7.500000e-01  0.000000e+00  -1.750000e+00  0  3885 0  -9.754643e+00 -2.295749e-10 -1.765546e+01   3.245979e-10 -4.268063e-01 -2.761523e-11 2.000000e-01  6.250000e-02  
-5.000000e-01  0.000000e+00  -2.000000e+00  0  3822 0  -3.541409e+00 9.938909e-10 2.433666e-09   7.298900e-11 -5.557477e-10 -7.028336e-12 2.000000e-01  6.250000e-02  
-5.000000e-01  0.000000e+00  -1.750000e+00  0  3886 0  4.176404e+00 1.366021e-10 -2.027416e+01   1.059566e-10 -1.960847e-01 5.271544e-11 2.000000e-01  6.250000e-02  
-2.500000e-01  0.000000e+00  -2.000000e+00  0  3823 0  -2.225700e-01 -1.764762e-09 1.273830e-09   8.541956e-11 -9.085296e-11 1.573899e-10 2.000000e-01  6.250000e-02  
-2.500000e-01  0.000000e+00  -1.750000e+00  0  3887 0  3.506997e+00 1.007349e-09 -1.579769e+01   3.527012e-11 -1.840091e-01 1.189160e-10 2.000000e-01  6.250000e-02  
0.000000e+00  0.000000e+00  -2.000000e+00  0  3824 0  1.221043e-09 1.260498e-09 2.469276e-09   2.295694e-11 1.514573e-10 1.699235e-11 2.000000e-01  6.250000e-02  
0.000000e+00  0.000000e+00  -1.750000e+00  0  3888 0  -4.600316e-10 -4.864108e-10 -1.919194e+01   -6.398719e-11 1.372446e-11 6.975687e-12 2.000000e-01  6.250000e-02  
-2.000000e+00  -2.000000e+00  -1.500000e+00  0  1306 0  -1.354761e-05 1.138293e-06 -8.860891e+00   1.303433e-07 1.521900e-06 1.042670e-08 2.000000e-01  6.250000e-02  
-1.750000e+00  -2.000000e+00  -1.500000e+00  0  1307 0  -5.917861e+00 2.004050e-07 1.519629e+01   -3.735092e-08 -1.647543e+00 4.160164e-08 2.000000e-01  6.250000e-02  
-1.750000e+00  -1.750000e+00  -1.500000e+00  0  1318 0  -1.626667e+01 -1.626667e+01 9.612065e-01   2.103218e+00 -2.103217e+00 -6.447385e-08 2.000000e-01  6.250000e-02  
-2.000000e+00  -1.750000e+00  -1.500000e+00  0  1317 0  -2.444141e-06 -5.917854e+00 1.519628e+01   1.647542e+00 -3.376873e-07 3.273591e-07 2.000000e-01  6.250000e-02  
-1.500000e+00  -2.000000e+00  -1.500000e+00  0  1308 0  2.292436e+00 6.441147e-08 2.292436e+00   -9.917032e-08 1.056463e-07 1.022112e-07 2.000000e-01  6.250000e-02  
-1.500000e+00  -1.750000e+00  -1.500000e+00  0  1319 0  5.873101e+00 -1.848965e+01 5.873098e+00   2.169619e+00 -2.982900e-07 -2.169619e+00 2.000000e-01  6.250000e-02  
-1.250000e+00  -2.000000e+00  -1.500000e+00  0  2275 0  -6.933287e+00 2.006496e-07 5.954006e+00   1.162211e-08 8.810855e-01 -3.446780e-08 2.000000e-01  6.250000e-02  
-1.250000e+00  -1.750000e+00  -1.500000e+00  0  2283 0  -2.896824e+00 -1.320086e+01 1.006052e+01   1.745500e+00 1.304701e+00 1.292825e+00 2.000000e-01  6.250000e-02  
-1.000000e+00  -2.000000e+00  -1.500000e+00  0  2276 0  4.350978e+00 -2.307838e-09 1.328762e+01   5.226362e-09 -9.878880e-01 -2.994850e-08 2.000000e-01  6.250000e-02  
-1.000000e+00  -1.750000e+00  -1.500000e+00  0  2284 0  2.281424e-01 -4.056758e+00 9.479588e+00   7.960003e-01 4.411470e-02 1.283464e+00 2.000000e-01  6.250000e-02  
-7.500000e-01  -2.000000e+00  -1.500000e+00  0  2277 0  -6.452036e+00 -2.944752e-08 2.655317e+00   7.175316e-10 1.766331e-01 -6.110518e-10 2.000000e-01  6.250000e-02  
-7.500000e-01  -1.750000e+00  -1.500000e+00  0  2285 0  -1.451409e+01 -1.068423e+01 2.148396e+01   1.745699e-01 -4.521982e-01 7.228574e-01 2.000000e-01  6.250000e-02  
-5.000000e-01  -2.000000e+00  -1.500000e+00  0  2278 0  -4.334523e+00 -6.341277e-08 9.872004e+00   3.312315e-09 9.444695e-01 2.435449e-09 2.000000e-01  6.250000e-02  
-5.000000e-01  -1.750000e+00  -1.500000e+00  0  2286 0  4.201681e+00 -1.287935e+01 2.171561e+01   6.069302e-01 7.093269e-01 7.124295e-01 2.000000e-01  6.250000e-02  