VARIABLES="X", "Y", "Z", "Maximum Refinment Level", "Temp_ID", "Thread","Ex (corner node)","Ey (corner node)","Ez (corner node)","Bx (center node)","By (center node)","Bz (center node)", "Local Time Step" , "log10(Local Particle Weight)" 
ZONE N=4913, E=4096, DATAPACKING=POINT, ZONETYPE=FEBRICK
-2.000000e+00  -2.000000e+00  -2.000000e+00  0  1064 0  1.271078e-04 -8.876624e-05 1.038058e-04   1.040040e-07 -7.416827e-08 -9.153365e-07 2.000000e-01  6.250000e-02  
-1.750000e+00  -2.000000e+00  -2.000000e+00  0  1065 0  5.351097e-02 -7.090843e-01 -6.202975e-05   -4.509374e-07 -6.960244e-06 4.755862e-01 2.000000e-01  6.250000e-02  
-1.750000e+00  -1.750000e+00  -2.000000e+00  0  1076 0  -3.535213e+00 -3.535204e+00 6.838490e-05   2.478273e-06 -2.387555e-06 -2.173302e-05 2.000000e-01  6.250000e-02  
-2.000000e+00  -1.750000e+00  -2.000000e+00  0  1075 0  -7.090967e-01 5.318113e-02 -6.242175e-05   6.928566e-06 4.853363e-07 -4.756361e-01 2.000000e-01  6.250000e-02  
-2.000000e+00  -2.000000e+00  -1.750000e+00  0  1185 0  -6.847312e-05 8.589715e-06 4.139218e+00   1.546762e-05 3.687108e-05 -2.807510e-07 2.000000e-01  6.250000e-02  
-1.750000e+00  -2.000000e+00  -1.750000e+00  0  1186 0  -5.328631e+00 -3.471850e+00 -2.654676e-01   -4.450739e-01 9.062126e-02 -4.793374e-02 2.000000e-01  6.250000e-02  
-1.750000e+00  -1.750000e+00  -1.750000e+00  0  1197 0  -5.398290e+00 -5.398245e+00 -4.876144e+00   -4.183597e-01 4.183834e-01 -1.600368e-05 2.000000e-01  6.250000e-02  
-2.000000e+00  -1.750000e+00  -1.750000e+00  0  1196 0  -3.471823e+00 -5.328638e+00 -2.655009e-01   -9.058258e-02 4.451155e-01 4.790317e-02 2.000000e-01  6.250000e-02  
-1.500000e+00  -2.000000e+00  -2.000000e+00  0  1066 0  9.498066e+00 1.021862e+00 3.065063e-05   1.668982e-06 -3.845256e-06 2.529620e-01 2.000000e-01  6.250000e-02  
-1.500000e+00  -1.750000e+00  -2.000000e+00  0  1077 0  4.819601e+00 2.345698e+00 -4.074320e-05   -1.000685e-05 2.544509e-06 -8.552430e-01 2.000000e-01  6.250000e-02  
-1.500000e+00  -2.000000e+00  -1.750000e+00  0  1187 0  4.612067e+00 2.800141e-01 3.264949e+00   -3.291587e-01 1.810830e+00 -1.071094e-01 2.000000e-01  6.250000e-02  
-1.500000e+00  -1.750000e+00  -1.750000e+00  0  1198 0  4.488094e+00 3.298249e+00 2.345944e+00   -2.718770e-01 2.127206e+00 -8.781945e-01 2.000000e-01  6.250000e-02  
-1.250000e+00  -2.000000e+00  -2.000000e+00  0  2099 0  9.399465e+00 2.031384e+00 -2.308419e-05   -1.450417e-06 9.073209e-06 3.173551e-01 2.000000e-01  6.250000e-02  
-1.250000e+00  -1.750000e+00  -2.000000e+00  0  2107 0  -4.924129e+00 -3.287131e+00 1.904502e-05   -1.075555e-05 3.475667e-06 -5.305615e-02 2.000000e-01  6.250000e-02  
-1.250000e+00  -2.000000e+00  -1.750000e+00  0  2187 0  -3.446462e+00 -7.989342e-03 -2.172499e+00   -4.895467e-01 4.070128e-01 2.196800e-01 2.000000e-01  6.250000e-02  
-1.250000e+00  -1.750000e+00  -1.750000e+00  0  2195 0  -1.031946e+01 4.639612e+00 3.769973e+00   2.614702e-02 6.672775e-01 -2.866326e-01 2.000000e-01  6.250000e-02  
-1.000000e+00  -2.000000e+00  -2.000000e+00  0  2100 0  7.181409e+00 3.076297e-01 -4.679385e-05   -1.105896e-06 -2.248805e-06 1.312745e-01 2.000000e-01  6.250000e-02  
-1.000000e+00  -1.750000e+00  -2.000000e+00  0  2108 0  -9.402161e-01 6.476537e+00 2.175937e-05   -1.423768e-06 1.574907e-06 -2.885448e-01 2.000000e-01  6.250000e-02  
-1.000000e+00  -2.000000e+00  -1.750000e+00  0  2188 0  -4.128884e+00 -1.127159e+00 4.356700e+00   -3.349611e-01 -3.791306e-02 1.218075e-02 2.000000e-01  6.250000e-02  
-1.000000e+00  -1.750000e+00  -1.750000e+00  0  2196 0  -3.766062e-01 3.060410e+00 2.441327e+00   4.157916e-01 8.827596e-02 -7.688915e-01 2.000000e-01  6.250000e-02  
-7.500000e-01  -2.000000e+00  -2.000000e+00  0  2101 0  -7.802655e+00 2.038208e+00 4.012118e-05   2.210479e-06 3.387291e-06 -2.250465e-02 2.000000e-01  6.250000e-02  
-7.500000e-01  -1.750000e+00  -2.000000e+00  0  2109 0  6.744727e+00 1.075080e+01 3.151950e-05   -2.035581e-06 8.347596e-06 -1.343090e-01 2.000000e-01  6.250000e-02  
-7.500000e-01  -2.000000e+00  -1.750000e+00  0  2189 0  7.750979e+00 -1.219379e+00 9.708191e+00   1.060251e-01 1.183553e-01 -2.735083e-01 2.000000e-01  6.250000e-02  
-7.500000e-01  -1.750000e+00  -1.750000e+00  0  2197 0  -7.606134e+00 -2.203646e+00 -2.951429e+00   6.426834e-01 4.033999e-01 -3.629881e-01 2.000000e-01  6.250000e-02  
-5.000000e-01  -2.000000e+00  -2.000000e+00  0  2102 0  -2.765399e-01 -6.317492e+00 7.110602e-06   -1.176604e-07 7.228398e-06 4.876327e-01 2.000000e-01  6.250000e-02  
-5.000000e-01  -1.750000e+00  -2.000000e+00  0  2110 0  2.104862e+00 -1.223037e+00 -2.569619e-05   -4.714340e-06 1.668564e-05 1.261604e+00 2.000000e-01  6.250000e-02  
-5.000000e-01  -2.000000e+00  -1.750000e+00  0  2190 0  -1.193050e+00 1.884493e+00 3.979959e+00   4.157803e-01 -7.529367e-01 2.315737e-01 2.000000e-01  6.250000e-02  
-5.000000e-01  -1.750000e+00  -1.750000e+00  0  2198 0  2.111170e+00 -2.324273e+00 -3.907972e+00   5.509405e-01 -1.112155e-01 8.525584e-01 2.000000e-01  6.250000e-02  
-2.500000e-01  -2.000000e+00  -2.000000e+00  0  2103 0  8.145054e+00 1.235721e+00 -1.151311e-05   -1.415432e-06 4.801666e-06 -2.308886e-01 2.000000e-01  6.250000e-02  
-2.500000e-01  -1.750000e+00  -2.000000e+00  0  2111 0  -4.561592e+00 2.109442e+00 -5.216094e-06   -2.046827e-06 6.895695e-06 -1.936278e-02 2.000000e-01  6.250000e-02  
-2.500000e-01  -2.000000e+00  -1.750000e+00  0  2191 0  -3.573938e+00 1.277756e+00 8.129631e-01   2.653989e-01 1.624881e-01 2.116891e-03 2.000000e-01  6.250000e-02  
-2.500000e-01  -1.750000e+00  -1.750000e+00  0  2199 0  2.092978e+00 -4.761482e+00 -6.462679e+00   3.148452e-01 -6.654018e-01 9.853690e-01 2.000000e-01  6.250000e-02  
0.000000e+00  -2.000000e+00  -2.000000e+00  0  2104 0  -1.517000e-04 1.057651e-04 1.205644e-06   1.749648e-08 -5.936275e-09 -6.646376e-01 2.000000e-01  6.250000e-02  
0.000000e+00  -1.750000e+00  -2.000000e+00  0  2112 0  9.080513e-01 -4.245105e+00 -2.039273e-05   1.410279e-06 -2.130012e-06 -6.280780e-01 2.000000e-01  6.250000e-02  
0.000000e+00  -2.000000e+00  -1.750000e+00  0  2192 0  1.811561e-05 3.345702e-06 -4.960265e+00   2.169175e-05 -1.272271e-05 -4.725848e-01 2.000000e-01  6.250000e-02  
0.000000e+00  -1.750000e+00  -1.750000e+00  0  2200 0  -1.860173e+00 4.366553e+00 4.950581e+00   -6.214536e-02 -2.369166e-01 -3.507114e-01 2.000000e-01  6.250000e-02  
-1.750000e+00  -1.500000e+00  -2.000000e+00  0  1087 0  2.345704e+00 4.819611e+00 -4.132642e-05   -2.506044e-06 1.009789e-05 8.552219e-01 2.000000e-01  6.250000e-02  
-2.000000e+00  -1.500000e+00  -2.000000e+00  0  1086 0  1.021914e+00 9.498164e+00 3.064404e-05   3.802824e-06 -1.670505e-06 -2.530052e-01 2.000000e-01  6.250000e-02  
-1.750000e+00  -1.500000e+00  -1.750000e+00  0  1208 0  3.298249e+00 4.488119e+00 2.345951e+00   -2.127204e+00 2.718881e-01 8.781788e-01 2.000000e-01  6.250000e-02  
-2.000000e+00  -1.500000e+00  -1.750000e+00  0  1207 0  2.800451e-01 4.612125e+00 3.264918e+00   -1.810817e+00 3.291715e-01 1.070966e-01 2.000000e-01  6.250000e-02  
-1.500000e+00  -1.500000e+00  -2.000000e+00  0  1088 0  -6.674476e+00 -6.674457e+00 -6.799522e-05   -1.763375e-05 1.766243e-05 -3.570949e-06 2.000000e-01  6.250000e-02  
-1.500000e+00  -1.500000e+00  -1.750000e+00  0  1209 0  -4.015370e+00 -4.015380e+00 2.018410e-01   -5.666157e-01 5.666188e-01 -2.751902e-06 2.000000e-01  6.250000e-02  
-1.250000e+00  -1.500000e+00  -2.000000e+00  0  2115 0  -1.261441e+00 2.168019e+00 -7.575916e-06   -1.086313e-06 4.596628e-06 -5.116377e-01 2.000000e-01  6.250000e-02  
-1.250000e+00  -1.500000e+00  -1.750000e+00  0  2203 0  3.471166e+00 -3.805167e+00 2.466119e+00   1.171228e+00 5.960323e-01 -6.591782e-01 2.000000e-01  6.250000e-02  
-1.000000e+00  -1.500000e+00  -2.000000e+00  0  2116 0  4.476387e+00 1.988357e+00 -5.805631e-06   1.072021e-05 3.293537e-06 7.651488e-01 2.000000e-01  6.250000e-02  
-1.000000e+00  -1.500000e+00  -1.750000e+00  0  2204 0  -2.314225e+00 -6.585724e+00 -8.250735e+00   5.214663e-01 5.087158e-01 1.537511e+00 2.000000e-01  6.250000e-02  
-7.500000e-01  -1.500000e+00  -2.000000e+00  0  2117 0  4.580372e+00 6.696503e+00 -1.579207e-05   4.029371e-06 5.530556e-06 2.544811e+00 2.000000e-01  6.250000e-02  
-7.500000e-01  -1.500000e+00  -1.750000e+00  0  2205 0  6.604832e+00 1.916167e+00 4.162441e+00   -8.699585e-01 9.200743e-01 2.708902e+00 2.000000e-01  6.250000e-02  
-5.000000e-01  -1.500000e+00  -2.000000e+00  0  2118 0  5.978313e+00 1.555207e+00 -3.987786e-05   -2.335063e-06 1.288170e-05 1.171775e+00 2.000000e-01  6.250000e-02  
-5.000000e-01  -1.500000e+00  -1.750000e+00  0  2206 0  -1.770266e+00 -6.347499e+00 5.997442e+00   -1.630138e-01 -2.765440e-01 6.788773e-01 2.000000e-01  6.250000e-02  
-2.500000e-01  -1.500000e+00  -2.000000e+00  0  2119 0  8.378356e+00 -1.614799e+00 -9.558304e-06   -6.610212e-07 3.054257e-06 1.382282e-02 2.000000e-01  6.250000e-02  
-2.500000e-01  -1.500000e+00  -1.750000e+00  0  2207 0  3.808464e+00 -4.880848e+00 5.285897e+00   2.259818e-01 -8.424526e-01 1.005168e-01 2.000000e-01  6.250000e-02  
0.000000e+00  -1.500000e+00  -2.000000e+00  0  2120 0  8.686853e-01 8.142780e-02 3.099615e-06   6.304937e-07 -2.616799e-06 -3.965138e-01 2.000000e-01  6.250000e-02  
0.000000e+00  -1.500000e+00  -1.750000e+00  0  2208 0  -1.935112e+00 -1.983401e-01 3.562981e+00   -7.643497e-01 -1.149606e-01 -3.428897e-01 2.000000e-01  6.250000e-02  
-1.750000e+00  -1.250000e+00  -2.000000e+00  0  3012 0  -3.287155e+00 -4.924093e+00 1.881685e-05   -3.484638e-06 1.075178e-05 5.305433e-02 2.000000e-01  6.250000e-02  
-2.000000e+00  -1.250000e+00  -2.000000e+00  0  3011 0  2.031267e+00 9.399395e+00 -2.310488e-05   -9.083820e-06 1.442846e-06 -3.173515e-01 2.000000e-01  6.250000e-02  
-1.750000e+00  -1.250000e+00  -1.750000e+00  0  3100 0  4.639612e+00 -1.031950e+01 3.769955e+00   -6.672784e-01 -2.614654e-02 2.866299e-01 2.000000e-01  6.250000e-02  
-2.000000e+00  -1.250000e+00  -1.750000e+00  0  3099 0  -8.001924e-03 -3.446434e+00 -2.172511e+00   -4.070094e-01 4.895426e-01 -2.196694e-01 2.000000e-01  6.250000e-02  
-1.500000e+00  -1.250000e+00  -2.000000e+00  0  3013 0  2.168022e+00 -1.261445e+00 -7.470250e-06   -4.604974e-06 1.078527e-06 5.116370e-01 2.000000e-01  6.250000e-02  
-1.500000e+00  -1.250000e+00  -1.750000e+00  0  3101 0  -3.805168e+00 3.471168e+00 2.466108e+00   -5.960293e-01 -1.171227e+00 6.591789e-01 2.000000e-01  6.250000e-02  
-1.250000e+00  -1.250000e+00  -2.000000e+00  0  3779 0  -1.427723e+00 -1.427714e+00 -1.358353e-05   2.649393e-06 -2.640154e-06 -1.778042e-06 2.000000e-01  6.250000e-02  
-1.250000e+00  -1.250000e+00  -1.750000e+00  0  3843 0  -6.130495e+00 -6.130486e+00 -8.296636e+00   1.026052e-01 -1.026054e-01 5.802703e-07 2.000000e-01  6.250000e-02  
-1.000000e+00  -1.250000e+00  -2.000000e+00  0  3780 0  -3.561500e-01 1.404055e+00 7.032507e-06   6.739169e-06 2.412531e-06 3.810318e-02 2.000000e-01  6.250000e-02  
-1.000000e+00  -1.250000e+00  -1.750000e+00  0  3844 0  -3.911202e+00 -4.390315e+00 -8.556675e-01   4.292166e-01 7.672957e-01 1.764794e-01 2.000000e-01  6.250000e-02  
-7.500000e-01  -1.250000e+00  -2.000000e+00  0  3781 0  5.596446e-02 -7.875887e+00 8.652888e-06   4.593166e-06 2.901671e-06 1.645716e+00 2.000000e-01  6.250000e-02  
-7.500000e-01  -1.250000e+00  -1.750000e+00  0  3845 0  1.032945e+00 1.073420e+00 -4.793799e-02   2.919439e-01 2.086240e+00 6.748512e-01 2.000000e-01  6.250000e-02  
-5.000000e-01  -1.250000e+00  -2.000000e+00  0  3782 0  -6.938134e+00 5.385866e+00 -7.585970e-06   1.380341e-06 4.238087e-06 1.225479e+00 2.000000e-01  6.250000e-02  
-5.000000e-01  -1.250000e+00  -1.750000e+00  0  3846 0  3.220507e-01 4.247480e-01 -4.890583e+00   -3.341831e-01 7.562920e-01 2.453526e-01 2.000000e-01  6.250000e-02  
-2.500000e-01  -1.250000e+00  -2.000000e+00  0  3783 0  9.436604e-01 1.665131e+00 1.030270e-06   5.684798e-07 7.075950e-07 1.094866e+00 2.000000e-01  6.250000e-02  
-2.500000e-01  -1.250000e+00  -1.750000e+00  0  3847 0  -4.470525e-01 -1.534763e+00 -4.477633e+00   -8.575909e-01 4.456474e-01 2.946828e-01 2.000000e-01  6.250000e-02  
0.000000e+00  -1.250000e+00  -2.000000e+00  0  3784 0  6.849916e-03 -1.091293e+01 -2.915776e-06   -8.462638e-07 -5.767310e-07 2.835023e-01 2.000000e-01  6.250000e-02  
0.000000e+00  -1.250000e+00  -1.750000e+00  0  3848 0  1.130366e+00 -7.586600e+00 1.878442e+00   -4.774967e-01 7.176704e-02 7.877775e-02 2.000000e-01  6.250000e-02  
-1.750000e+00  -1.000000e+00  -2.000000e+00  0  3023 0  6.476494e+00 -9.401533e-01 2.171722e-05   -1.569026e-06 1.429070e-06 2.885428e-01 2.000000e-01  6.250000e-02  
-2.000000e+00  -1.000000e+00  -2.000000e+00  0  3022 0  3.076990e-01 7.181308e+00 -4.668137e-05   2.242779e-06 1.133314e-06 -1.312798e-01 2.000000e-01  6.250000e-02  
-1.750000e+00  -1.000000e+00  -1.750000e+00  0  3111 0  3.060415e+00 -3.766116e-01 2.441321e+00   -8.827666e-02 -4.157926e-01 7.688869e-01 2.000000e-01  6.250000e-02  
-2.000000e+00  -1.000000e+00  -1.750000e+00  0  3110 0  -1.127172e+00 -4.128921e+00 4.356707e+00   3.791524e-02 3.349650e-01 -1.218909e-02 2.000000e-01  6.250000e-02  
-1.500000e+00  -1.000000e+00  -2.000000e+00  0  3024 0  1.988384e+00 4.476340e+00 -5.820260e-06   -3.309046e-06 -1.071907e-05 -7.651457e-01 2.000000e-01  6.250000e-02  
-1.500000e+00  -1.000000e+00  -1.750000e+00  0  3112 0  -6.585708e+00 -2.314208e+00 -8.250724e+00   -5.087143e-01 -5.214657e-01 -1.537509e+00 2.000000e-01  6.250000e-02  
-1.250000e+00  -1.000000e+00  -2.000000e+00  0  3787 0  1.404045e+00 -3.561417e-01 7.137008e-06   -2.424885e-06 -6.722411e-06 -3.810627e-02 2.000000e-01  6.250000e-02  
-1.250000e+00  -1.000000e+00  -1.750000e+00  0  3851 0  -4.390313e+00 -3.911211e+00 -8.556657e-01   -7.672945e-01 -4.292194e-01 -1.764801e-01 2.000000e-01  6.250000e-02  
-1.000000e+00  -1.000000e+00  -2.000000e+00  0  3788 0  4.733490e+00 4.733491e+00 4.604955e-06   -8.872615e-07 9.032492e-07 -2.627341e-07 2.000000e-01  6.250000e-02  
-1.000000e+00  -1.000000e+00  -1.750000e+00  0  3852 0  -1.811023e+00 -1.811020e+00 -6.234757e-01   -2.501617e-01 2.501611e-01 -7.647907e-07 2.000000e-01  6.250000e-02  
-7.500000e-01  -1.000000e+00  -2.000000e+00  0  3789 0  7.095834e+00 -5.058059e-01 5.798329e-06   -9.702547e-07 3.272432e-06 -2.550375e+00 2.000000e-01  6.250000e-02  
-7.500000e-01  -1.000000e+00  -1.750000e+00  0  3853 0  2.683774e+00 -1.196217e+00 2.485322e+00   5.236891e-01 2.902662e+00 -2.653748e+00 2.000000e-01  6.250000e-02  
-5.000000e-01  -1.000000e+00  -2.000000e+00  0  3790 0  4.500558e+00 -3.267864e+00 4.842935e-07   -1.199599e-06 4.431103e-08 -1.382095e+00 2.000000e-01  6.250000e-02  
-5.000000e-01  -1.000000e+00  -1.750000e+00  0  3854 0  1.071177e+00 5.292652e+00 9.180829e-02   7.288390e-01 1.994221e+00 -9.610975e-01 2.000000e-01  6.250000e-02  
-2.500000e-01  -1.000000e+00  -2.000000e+00  0  3791 0  1.197297e+01 -3.024422e+00 -8.495581e-07   -4.160563e-07 8.892228e-08 1.135036e+00 2.000000e-01  6.250000e-02  
-2.500000e-01  -1.000000e+00  -1.750000e+00  0  3855 0  7.521916e+00 4.734248e+00 -3.865299e-01   1.612705e+00 8.211513e-01 5.204613e-01 2.000000e-01  6.250000e-02  
0.000000e+00  -1.000000e+00  -2.000000e+00  0  3792 0  3.119070e+00 1.296724e+01 2.368619e-07   -2.527941e-07 2.892421e-07 1.664845e-01 2.000000e-01  6.250000e-02  
0.000000e+00  -1.000000e+00  -1.750000e+00  0  3856 0  -7.870819e-02 -4.879196e+00 -4.195267e+00   2.525074e+00 9.958437e-02 9.018374e-02 2.000000e-01  6.250000e-02  
-1.750000e+00  -7.500000e-01  -2.000000e+00  0  3034 0  1.075080e+01 6.744743e+00 3.140739e-05   -8.355498e-06 2.045511e-06 1.343106e-01 2.000000e-01  6.250000e-02  
-2.000000e+00  -7.500000e-01  -2.000000e+00  0  3033 0  2.038254e+00 -7.802693e+00 3.990358e-05   -3.390375e-06 -2.204990e-06 2.249032e-02 2.000000e-01  6.250000e-02  
-1.750000e+00  -7.500000e-01  -1.750000e+00  0  3122 0  -2.203663e+00 -7.606138e+00 -2.951439e+00   -4.034015e-01 -6.426824e-01 3.629883e-01 2.000000e-01  6.250000e-02  
-2.000000e+00  -7.500000e-01  -1.750000e+00  0  3121 0  -1.219364e+00 7.751009e+00 9.708203e+00   -1.183583e-01 -1.060179e-01 2.734971e-01 2.000000e-01  6.250000e-02  
-1.500000e+00  -7.500000e-01  -2.000000e+00  0  3035 0  6.696493e+00 4.580377e+00 -1.584230e-05   -5.550309e-06 -4.024924e-06 -2.544805e+00 2.000000e-01  6.250000e-02  
-1.500000e+00  -7.500000e-01  -1.750000e+00  0  3123 0  1.916171e+00 6.604846e+00 4.162458e+00   -9.200728e-01 8.699586e-01 -2.708898e+00 2.000000e-01  6.250000e-02  
-1.250000e+00  -7.500000e-01  -2.000000e+00  0  3795 0  -7.875892e+00 5.598413e-02 8.661180e-06   -2.919316e-06 -4.589292e-06 -1.645717e+00 2.000000e-01  6.250000e-02  
-1.250000e+00  -7.500000e-01  -1.750000e+00  0  3859 0  1.073424e+00 1.032937e+00 -4.793796e-02   -2.086238e+00 -2.919453e-01 -6.748526e-01 2.000000e-01  6.250000e-02  
-1.000000e+00  -7.500000e-01  -2.000000e+00  0  3796 0  -5.058044e-01 7.095831e+00 5.748784e-06   -3.268557e-06 9.807411e-07 2.550376e+00 2.000000e-01  6.250000e-02  
-1.000000e+00  -7.500000e-01  -1.750000e+00  0  3860 0  -1.196222e+00 2.683778e+00 2.485319e+00   -2.902661e+00 -5.236887e-01 2.653749e+00 2.000000e-01  6.250000e-02  
-7.500000e-01  -7.500000e-01  -2.000000e+00  0  3797 0  -2.403095e+00 -2.403091e+00 -3.129958e-06   -1.156610e-06 1.167957e-06 -1.722510e-07 2.000000e-01  6.250000e-02  
-7.500000e-01  -7.500000e-01  -1.750000e+00  0  3861 0  -6.009250e+00 -6.009250e+00 -1.543220e+00   -1.754886e+00 1.754887e+00 4.831861e-07 2.000000e-01  6.250000e-02  
-5.000000e-01  -7.500000e-01  -2.000000e+00  0  3798 0  4.174724e+00 -2.568152e-01 -1.318095e-07   6.425857e-08 -1.598783e-06 -6.419631e-01 2.000000e-01  6.250000e-02  
-5.000000e-01  -7.500000e-01  -1.750000e+00  0  3862 0  2.700504e-01 -4.285533e+00 -9.620086e-01   -6.428970e-01 1.513934e+00 -6.486619e-01 2.000000e-01  6.250000e-02  
-2.500000e-01  -7.500000e-01  -2.000000e+00  0  3799 0  -1.019883e+01 3.336250e+00 -9.056421e-07   -9.579395e-08 -1.164958e-06 1.102643e-01 2.000000e-01  6.250000e-02  
-2.500000e-01  -7.500000e-01  -1.750000e+00  0  3863 0  2.563578e+00 3.177832e+00 -9.476990e-01   1.026081e+00 -1.426543e-01 -7.982094e-01 2.000000e-01  6.250000e-02  
0.000000e+00  -7.500000e-01  -2.000000e+00  0  3800 0  8.608618e-01 -1.256017e+00 1.295960e-06   -1.947592e-07 -1.987584e-07 -3.242803e-01 2.000000e-01  6.250000e-02  
0.000000e+00  -7.500000e-01  -1.750000e+00  0  3864 0  8.161052e-01 -4.431033e-02 -4.709355e+00   2.544727e+00 1.097335e-01 -2.022876e-01 2.000000e-01  6.250000e-02  
-1.750000e+00  -5.000000e-01  -2.000000e+00  0  3045 0  -1.223066e+00 2.104833e+00 -2.549707e-05   -1.666245e-05 4.700531e-06 -1.261597e+00 2.000000e-01  6.250000e-02  
-2.000000e+00  -5.000000e-01  -2.000000e+00  0  3044 0  -6.317529e+00 -2.765318e-01 7.089459e-06   -7.219425e-06 1.084067e-07 -4.876314e-01 2.000000e-01  6.250000e-02  
-1.750000e+00  -5.000000e-01  -1.750000e+00  0  3133 0  -2.324238e+00 2.111203e+00 -3.907984e+00   1.112119e-01 -5.509389e-01 -8.525499e-01 2.000000e-01  6.250000e-02  
-2.000000e+00  -5.000000e-01  -1.750000e+00  0  3132 0  1.884455e+00 -1.193040e+00 3.979961e+00   7.529365e-01 -4.157736e-01 -2.315731e-01 2.000000e-01  6.250000e-02  
-1.500000e+00  -5.000000e-01  -2.000000e+00  0  3046 0  1.555213e+00 5.978338e+00 -3.979211e-05   -1.288362e-05 2.331408e-06 -1.171770e+00 2.000000e-01  6.250000e-02  
-1.500000e+00  -5.000000e-01  -1.750000e+00  0  3134 0  -6.347503e+00 -1.770289e+00 5.997427e+00   2.765379e-01 1.630132e-01 -6.788701e-01 2.000000e-01  6.250000e-02  
-1.250000e+00  -5.000000e-01  -2.000000e+00  0  3803 0  5.385872e+00 -6.938143e+00 -7.598731e-06   -4.255142e-06 -1.370560e-06 -1.225481e+00 2.000000e-01  6.250000e-02  
-1.250000e+00  -5.000000e-01  -1.750000e+00  0  3867 0  4.247541e-01 3.220501e-01 -4.890574e+00   -7.562956e-01 3.341800e-01 -2.453549e-01 2.000000e-01  6.250000e-02  
-1.000000e+00  -5.000000e-01  -2.000000e+00  0  3804 0  -3.267856e+00 4.500557e+00 4.565946e-07   -5.162858e-08 1.197370e-06 1.382093e+00 2.000000e-01  6.250000e-02  
-1.000000e+00  -5.000000e-01  -1.750000e+00  0  3868 0  5.292654e+00 1.071181e+00 9.181126e-02   -1.994222e+00 -7.288398e-01 9.610973e-01 2.000000e-01  6.250000e-02  
-7.500000e-01  -5.000000e-01  -2.000000e+00  0  3805 0  -2.568149e-01 4.174728e+00 -1.327325e-07   1.598017e-06 -5.739066e-08 6.419625e-01 2.000000e-01  6.250000e-02  
-7.500000e-01  -5.000000e-01  -1.750000e+00  0  3869 0  -4.285530e+00 2.700482e-01 -9.620106e-01   -1.513935e+00 6.428967e-01 6.486616e-01 2.000000e-01  6.250000e-02  
-5.000000e-01  -5.000000e-01  -2.000000e+00  0  3806 0  -8.937772e+00 -8.937774e+00 -8.325973e-07   6.691795e-07 -6.676230e-07 1.663751e-07 2.000000e-01  6.250000e-02  
-5.000000e-01  -5.000000e-01  -1.750000e+00  0  3870 0  -2.035230e+00 -2.035231e+00 7.712756e+00   -1.450291e+00 1.450290e+00 1.478374e-08 2.000000e-01  6.250000e-02  
-2.500000e-01  -5.000000e-01  -2.000000e+00  0  3807 0  1.417949e+00 1.164180e+00 5.245999e-07   -1.540796e-07 -4.179358e-07 4.680982e-01 2.000000e-01  6.250000e-02  
-2.500000e-01  -5.000000e-01  -1.750000e+00  0  3871 0  5.849521e+00 2.136991e+00 1.443884e+00   -7.227399e-01 -7.077488e-01 -3.845205e-01 2.000000e-01  6.250000e-02  
0.000000e+00  -5.000000e-01  -2.000000e+00  0  3808 0  -1.478455e+00 -7.064988e+00 -1.173632e-06   -5.054587e-07 -3.345729e-08 3.816852e-02 2.000000e-01  6.250000e-02  
0.000000e+00  -5.000000e-01  -1.750000e+00  0  3872 0  -8.253504e-02 -1.764453e+00 1.206116e+00   5.067149e-02 -3.438608e-02 9.442474e-02 2.000000e-01  6.250000e-02  
-1.750000e+00  -2.500000e-01  -2.000000e+00  0  3056 0  2.109491e+00 -4.561605e+00 -5.249591e-06   -6.855830e-06 2.061970e-06 1.939417e-02 2.000000e-01  6.250000e-02  
-2.000000e+00  -2.500000e-01  -2.000000e+00  0  3055 0  1.235720e+00 8.145056e+00 -1.143665e-05   -4.792234e-06 1.426054e-06 2.308963e-01 2.000000e-01  6.250000e-02  
-1.750000e+00  -2.500000e-01  -1.750000e+00  0  3144 0  -4.761500e+00 2.093069e+00 -6.462697e+00   6.653873e-01 -3.148343e-01 -9.853440e-01 2.000000e-01  6.250000e-02  
-2.000000e+00  -2.500000e-01  -1.750000e+00  0  3143 0  1.277760e+00 -3.573935e+00 8.129923e-01   -1.624967e-01 -2.653826e-01 -2.112645e-03 2.000000e-01  6.250000e-02  
-1.500000e+00  -2.500000e-01  -2.000000e+00  0  3057 0  -1.614789e+00 8.378359e+00 -9.511301e-06   -3.043047e-06 6.694064e-07 -1.379721e-02 2.000000e-01  6.250000e-02  
-1.500000e+00  -2.500000e-01  -1.750000e+00  0  3145 0  -4.880849e+00 3.808466e+00 5.285900e+00   8.424405e-01 -2.259818e-01 -1.004972e-01 2.000000e-01  6.250000e-02  
-1.250000e+00  -2.500000e-01  -2.000000e+00  0  3811 0  1.665114e+00 9.436695e-01 9.678104e-07   -7.025149e-07 -5.622755e-07 -1.094868e+00 2.000000e-01  6.250000e-02  
-1.250000e+00  -2.500000e-01  -1.750000e+00  0  3875 0  -1.534770e+00 -4.470648e-01 -4.477633e+00   -4.456503e-01 8.575830e-01 -2.946878e-01 2.000000e-01  6.250000e-02  
-1.000000e+00  -2.500000e-01  -2.000000e+00  0  3812 0  -3.024421e+00 1.197296e+01 -8.360456e-07   -8.140001e-08 4.037904e-07 -1.135039e+00 2.000000e-01  6.250000e-02  
-1.000000e+00  -2.500000e-01  -1.750000e+00  0  3876 0  4.734246e+00 7.521923e+00 -3.865393e-01   -8.211507e-01 -1.612709e+00 -5.204624e-01 2.000000e-01  6.250000e-02  
-7.500000e-01  -2.500000e-01  -2.000000e+00  0  3813 0  3.336252e+00 -1.019883e+01 -9.097513e-07   1.163225e-06 9.218645e-08 -1.102645e-01 2.000000e-01  6.250000e-02  
-7.500000e-01  -2.500000e-01  -1.750000e+00  0  3877 0  3.177839e+00 2.563563e+00 -9.477054e-01   1.426539e-01 -1.026082e+00 7.982088e-01 2.000000e-01  6.250000e-02  
-5.000000e-01  -2.500000e-01  -2.000000e+00  0  3814 0  1.164178e+00 1.417956e+00 5.227697e-07   4.177736e-07 1.538539e-07 -4.680982e-01 2.000000e-01  6.250000e-02  
-5.000000e-01  -2.500000e-01  -1.750000e+00  0  3878 0  2.136989e+00 5.849522e+00 1.443882e+00   7.077485e-01 7.227400e-01 3.845202e-01 2.000000e-01  6.250000e-02  
-2.500000e-01  -2.500000e-01  -2.000000e+00  0  3815 0  -1.466046e+00 -1.466046e+00 -2.213305e-06   -2.266789e-07 2.258140e-07 8.107516e-07 2.000000e-01  6.250000e-02  
-2.500000e-01  -2.500000e-01  -1.750000e+00  0  3879 0  3.746162e+00 3.746161e+00 4.931060e+00   2.340590e-01 -2.340590e-01 5.628222e-07 2.000000e-01  6.250000e-02  
0.000000e+00  -2.500000e-01  -2.000000e+00  0  3816 0  -4.366058e-01 -2.582116e+00 2.408487e-07   -1.348404e-08 1.593375e-07 1.446791e-01 2.000000e-01  6.250000e-02  
0.000000e+00  -2.500000e-01  -1.750000e+00  0  3880 0  3.425624e-01 -1.214000e-01 -5.210542e+00   -5.558012e-03 -1.804753e-01 7.964626e-02 2.000000e-01  6.250000e-02  
-1.750000e+00  0.000000e+00  -2.000000e+00  0  3067 0  -4.244872e+00 9.080424e-01 -2.027395e-05   2.132753e-06 -1.392231e-06 6.280926e-01 2.000000e-01  6.250000e-02  
-2.000000e+00  0.000000e+00  -2.000000e+00  0  3066 0  -6.493295e-06 1.881682e-05 1.182327e-06   5.587079e-09 1.660139e-11 6.646395e-01 2.000000e-01  6.250000e-02  
-1.750000e+00  0.000000e+00  -1.750000e+00  0  3155 0  4.366664e+00 -1.860115e+00 4.950655e+00   2.369088e-01 6.216418e-02 3.507207e-01 2.000000e-01  6.250000e-02  
-2.000000e+00  0.000000e+00  -1.750000e+00  0  3154 0  -1.552222e-05 -6.358536e-07 -4.960251e+00   -4.994760e-07 2.946206e-06 4.725859e-01 2.000000e-01  6.250000e-02  
-1.500000e+00  0.000000e+00  -2.000000e+00  0  3068 0  8.138414e-02 8.686882e-01 3.108305e-06   2.635887e-06 -6.217592e-07 3.965287e-01 2.000000e-01  6.250000e-02  
-1.500000e+00  0.000000e+00  -1.750000e+00  0  3156 0  -1.983393e-01 -1.935072e+00 3.562957e+00   1.149642e-01 7.643533e-01 3.428969e-01 2.000000e-01  6.250000e-02  
-1.250000e+00  0.000000e+00  -2.000000e+00  0  3819 0  -1.091293e+01 6.846995e-03 -2.922563e-06   6.132519e-07 8.460530e-07 -2.835023e-01 2.000000e-01  6.250000e-02  
-1.250000e+00  0.000000e+00  -1.750000e+00  0  3883 0  -7.586602e+00 1.130329e+00 1.878441e+00   -7.175932e-02 4.774931e-01 -7.878227e-02 2.000000e-01  6.250000e-02  
-1.000000e+00  0.000000e+00  -2.000000e+00  0  3820 0  1.296724e+01 3.119070e+00 2.710695e-07   -2.675133e-07 2.392992e-07 -1.664863e-01 2.000000e-01  6.250000e-02  
-1.000000e+00  0.000000e+00  -1.750000e+00  0  3884 0  -4.879200e+00 -7.869221e-02 -4.195269e+00   -9.958201e-02 -2.525076e+00 -9.018339e-02 2.000000e-01  6.250000e-02  
-7.500000e-01  0.000000e+00  -2.000000e+00  0  3821 0  -1.256019e+00 8.608634e-01 1.283648e-06   2.033481e-07 1.876564e-07 3.242805e-01 2.000000e-01  6.250000e-02  
-7.500000e-01  0.000000e+00  -1.750000e+00  0  3885 0  -4.430728e-02 8.160993e-01 -4.709356e+00   -1.097347e-01 -2.544727e+00 2.022874e-01 2.000000e-01  6.250000e-02  
-5.000000e-01  0.000000e+00  -2.000000e+00  0  3822 0  -7.064992e+00 -1.478456e+00 -1.180843e-06   3.498651e-08 5.003648e-07 -3.816988e-02 2.000000e-01  6.250000e-02  
-5.000000e-01  0.000000e+00  -1.750000e+00  0  3886 0  -1.764451e+00 -8.253166e-02 1.206115e+00   3.438484e-02 -5.067098e-02 -9.442591e-02 2.000000e-01  6.250000e-02  
-2.500000e-01  0.000000e+00  -2.000000e+00  0  3823 0  -2.582116e+00 -4.366044e-01 2.335751e-07   -1.577514e-07 1.285853e-08 -1.446787e-01 2.000000e-01  6.250000e-02  
-2.500000e-01  0.000000e+00  -1.750000e+00  0  3887 0  -1.213997e-01 3.425621e-01 -5.210542e+00   1.804743e-01 5.557827e-03 -7.964597e-02 2.000000e-01  6.250000e-02  
0.000000e+00  0.000000e+00  -2.000000e+00  0  3824 0  1.636988e-06 -2.006780e-07 -2.646486e-06   3.487351e-09 -4.579273e-10 -1.866181e-08 2.000000e-01  6.250000e-02  
0.000000e+00  0.000000e+00  -1.750000e+00  0  3888 0  -4.036842e-07 1.473009e-07 -1.078311e+00   -3.531591e-08 -4.095178e-07 -1.664424e-08 2.000000e-01  6.250000e-02  
-2.000000e+00  -2.000000e+00  -1.500000e+00  0  1306 0  1.325439e-05 -1.556491e-05 8.165261e+00   7.860965e-06 2.631279e-05 5.061132e-07 2.000000e-01  6.250000e-02  
-1.750000e+00  -2.000000e+00  -1.500000e+00  0  1307 0  2.790920e+00 8.285606e-01 3.711317e+00   5.008671e-02 -1.573874e+00 -6.336587e-01 2.000000e-01  6.250000e-02  
-1.750000e+00  -1.750000e+00  -1.500000e+00  0  1318 0  -1.392269e+00 -1.392240e+00 1.180458e+00   1.293519e+00 -1.293504e+00 -8.605948e-06 2.000000e-01  6.250000e-02  
-2.000000e+00  -1.750000e+00  -1.500000e+00  0  1317 0  8.285629e-01 2.790869e+00 3.711343e+00   1.573884e+00 -5.006692e-02 6.336545e-01 2.000000e-01  6.250000e-02  
-1.500000e+00  -2.000000e+00  -1.500000e+00  0  1308 0  -6.620584e+00 3.392614e+00 -8.028169e+00   -1.244773e-01 2.132801e-01 -3.705783e-01 2.000000e-01  6.250000e-02  
-1.500000e+00  -1.750000e+00  -1.500000e+00  0  1319 0  -4.984364e+00 -5.267350e-01 -2.853318e+00   1.175115e-01 7.761149e-01 -4.281788e-01 2.000000e-01  6.250000e-02  
-1.250000e+00  -2.000000e+00  -1.500000e+00  0  2275 0  -2.125246e+00 -3.642341e-01 2.900602e-01   -4.500662e-01 3.455664e-01 1.409139e-01 2.000000e-01  6.250000e-02  
-1.250000e+00  -1.750000e+00  -1.500000e+00  0  2283 0  3.545939e+00 -2.942680e-01 -1.928970e+00   -6.637602e-01 8.506891e-01 -1.069787e+00 2.000000e-01  6.250000e-02  
-1.000000e+00  -2.000000e+00  -1.500000e+00  0  2276 0  9.044166e+00 -3.271976e-02 3.523570e+00   -1.869165e-01 -1.262902e+00 -7.471374e-03 2.000000e-01  6.250000e-02  
-1.000000e+00  -1.750000e+00  -1.500000e+00  0  2284 0  -1.688796e+00 1.636312e+00 -1.087127e+00   1.415589e-01 -2.394392e+00 -1.260104e+00 2.000000e-01  6.250000e-02  
-7.500000e-01  -2.000000e+00  -1.500000e+00  0  2277 0  3.885296e+00 4.961288e-01 4.043143e+00   -1.241883e-01 -2.967193e+00 -1.654940e-01 2.000000e-01  6.250000e-02  
-7.500000e-01  -1.750000e+00  -1.500000e+00  0  2285 0  7.627307e+00 3.071679e+00 9.458508e-01   8.732130e-01 -3.367950e+00 -3.013844e-01 2.000000e-01  6.250000e-02  
-5.000000e-01  -2.000000e+00  -1.500000e+00  0  2278 0  3.432357e+00 4.987526e-01 2.739286e+00   -3.150565e-01 -1.632322e+00 -3.036266e-01 2.000000e-01  6.250000e-02  
-5.000000e-01  -1.750000e+00  -1.500000e+00  0  2286 0  -5.747296e+00 5.225166e+00 -5.276886e+00   -1.450222e-01 -7.021247e-01 7.530258e-01 2.000000e-01  6.250000e-02  
-2.500000e-01  -2.000000e+00  -1.500000e+00  0  2279 0  8.486303e+00 -6.761252e-01 -1.307193e+00   -8.534177e-02 4.845459e-01 -5.493870e-02 2.000000e-01  6.250000e-02  