VARIABLES="X", "Y", "Z", "Maximum Refinment Level", "Temp_ID", "Thread","Ex (corner node)","Ey (corner node)","Ez (corner node)","Bx (center node)","By (center node)","Bz (center node)", "Local Time Step" , "log10(Local Particle Weight)" 
ZONE N=4913, E=4096, DATAPACKING=POINT, ZONETYPE=FEBRICK
-2.000000e+00  -2.000000e+00  -2.000000e+00  0  1064 0  -3.707602e-05 2.220362e-03 -3.707602e-05   -7.173227e-04 7.926612e-21 7.173227e-04 2.000000e-01  1.000000e+00  
-1.750000e+00  -2.000000e+00  -2.000000e+00  0  1065 0  3.707602e-05 2.220362e-03 -3.707602e-05   -7.173227e-04 -9.405971e-21 -7.173227e-04 2.000000e-01  1.000000e+00  
-1.750000e+00  -1.750000e+00  -2.000000e+00  0  1076 0  9.491856e-05 1.956372e-03 -9.491856e-05   -6.358374e-04 -3.115184e-20 -6.358374e-04 2.000000e-01  1.000000e+00  
-2.000000e+00  -1.750000e+00  -2.000000e+00  0  1075 0  -9.491856e-05 1.956372e-03 -9.491856e-05   -6.358374e-04 3.065312e-21 6.358374e-04 2.000000e-01  1.000000e+00  
-2.000000e+00  -2.000000e+00  -1.750000e+00  0  1185 0  -3.707602e-05 2.220362e-03 3.707602e-05   7.173227e-04 1.758598e-20 7.173227e-04 2.000000e-01  1.000000e+00  
-1.750000e+00  -2.000000e+00  -1.750000e+00  0  1186 0  3.707602e-05 2.220362e-03 3.707602e-05   7.173227e-04 -1.552932e-20 -7.173227e-04 2.000000e-01  1.000000e+00  
-1.750000e+00  -1.750000e+00  -1.750000e+00  0  1197 0  9.491856e-05 1.956372e-03 9.491856e-05   6.358374e-04 -8.391404e-21 -6.358374e-04 2.000000e-01  1.000000e+00  
-2.000000e+00  -1.750000e+00  -1.750000e+00  0  1196 0  -9.491856e-05 1.956372e-03 9.491856e-05   6.358374e-04 1.418203e-20 6.358374e-04 2.000000e-01  1.000000e+00  
-1.500000e+00  -2.000000e+00  -2.000000e+00  0  1066 0  6.874987e-05 3.014042e-03 -5.135165e-05   -1.334556e-03 -2.855809e-20 -2.047533e-03 2.000000e-01  1.000000e+00  
-1.500000e+00  -1.750000e+00  -2.000000e+00  0  1077 0  1.961265e-04 2.814831e-03 -1.469723e-04   -1.218293e-03 -5.172580e-20 -1.870936e-03 2.000000e-01  1.000000e+00  
-1.500000e+00  -2.000000e+00  -1.750000e+00  0  1187 0  6.874987e-05 3.014042e-03 5.135165e-05   1.334556e-03 -3.455882e-20 -2.047533e-03 2.000000e-01  1.000000e+00  
-1.500000e+00  -1.750000e+00  -1.750000e+00  0  1198 0  1.961265e-04 2.814831e-03 1.469723e-04   1.218293e-03 -4.386421e-20 -1.870936e-03 2.000000e-01  1.000000e+00  
-1.250000e+00  -2.000000e+00  -2.000000e+00  0  2099 0  1.974257e-04 7.483410e-03 -1.708114e-04   -3.078312e-03 -8.001439e-20 -3.893368e-03 2.000000e-01  1.000000e+00  
-1.250000e+00  -1.750000e+00  -2.000000e+00  0  2107 0  5.119062e-04 6.412198e-03 -4.568323e-04   -2.723362e-03 -1.215757e-19 -3.460638e-03 2.000000e-01  1.000000e+00  
-1.250000e+00  -2.000000e+00  -1.750000e+00  0  2187 0  1.974257e-04 7.483410e-03 1.708114e-04   3.078312e-03 -1.241448e-19 -3.893368e-03 2.000000e-01  1.000000e+00  
-1.250000e+00  -1.750000e+00  -1.750000e+00  0  2195 0  5.119062e-04 6.412198e-03 4.568323e-04   2.723362e-03 -8.585791e-20 -3.460638e-03 2.000000e-01  1.000000e+00  
-1.000000e+00  -2.000000e+00  -2.000000e+00  0  2100 0  1.638560e-04 9.621476e-03 -2.859949e-04   -5.713568e-03 -9.185442e-20 -5.135186e-03 2.000000e-01  1.000000e+00  
-1.000000e+00  -1.750000e+00  -2.000000e+00  0  2108 0  5.197357e-04 8.979541e-03 -8.252487e-04   -5.098352e-03 -1.644854e-19 -4.695559e-03 2.000000e-01  1.000000e+00  
-1.000000e+00  -2.000000e+00  -1.750000e+00  0  2188 0  1.638560e-04 9.621476e-03 2.859949e-04   5.713568e-03 -2.417673e-19 -5.135186e-03 2.000000e-01  1.000000e+00  
-1.000000e+00  -1.750000e+00  -1.750000e+00  0  2196 0  5.197357e-04 8.979541e-03 8.252487e-04   5.098352e-03 -1.981572e-19 -4.695559e-03 2.000000e-01  1.000000e+00  
-7.500000e-01  -2.000000e+00  -2.000000e+00  0  2101 0  3.290893e-04 1.872575e-02 -5.233019e-04   -9.034195e-03 -1.717242e-19 -6.407449e-03 2.000000e-01  1.000000e+00  
-7.500000e-01  -1.750000e+00  -2.000000e+00  0  2109 0  8.148945e-04 1.605420e-02 -1.218545e-03   -8.094484e-03 -2.901071e-19 -5.718467e-03 2.000000e-01  1.000000e+00  
-7.500000e-01  -2.000000e+00  -1.750000e+00  0  2189 0  3.290893e-04 1.872575e-02 5.233019e-04   9.034195e-03 -1.925767e-19 -6.407449e-03 2.000000e-01  1.000000e+00  
-7.500000e-01  -1.750000e+00  -1.750000e+00  0  2197 0  8.148945e-04 1.605420e-02 1.218545e-03   8.094484e-03 -7.259318e-20 -5.718467e-03 2.000000e-01  1.000000e+00  
-5.000000e-01  -2.000000e+00  -2.000000e+00  0  2102 0  3.576825e-04 2.116038e-02 -1.218703e-03   -1.349180e-02 -3.138652e-19 -6.131965e-03 2.000000e-01  1.000000e+00  
-5.000000e-01  -1.750000e+00  -2.000000e+00  0  2110 0  6.566884e-04 1.925506e-02 -1.745937e-03   -1.188340e-02 -2.876161e-19 -5.521584e-03 2.000000e-01  1.000000e+00  
-5.000000e-01  -2.000000e+00  -1.750000e+00  0  2190 0  3.576825e-04 2.116038e-02 1.218703e-03   1.349180e-02 1.531336e-20 -6.131965e-03 2.000000e-01  1.000000e+00  
-5.000000e-01  -1.750000e+00  -1.750000e+00  0  2198 0  6.566884e-04 1.925506e-02 1.745937e-03   1.188340e-02 4.825562e-20 -5.521584e-03 2.000000e-01  1.000000e+00  
-2.500000e-01  -2.000000e+00  -2.000000e+00  0  2103 0  3.402888e-04 2.974196e-02 -2.060996e-03   -1.643820e-02 -2.802577e-19 -4.298946e-03 2.000000e-01  1.000000e+00  
-2.500000e-01  -1.750000e+00  -2.000000e+00  0  2111 0  2.939343e-04 2.552511e-02 -1.476689e-03   -1.454421e-02 -6.448519e-20 -3.905767e-03 2.000000e-01  1.000000e+00  
-2.500000e-01  -2.000000e+00  -1.750000e+00  0  2191 0  3.402888e-04 2.974196e-02 2.060996e-03   1.643820e-02 8.949866e-20 -4.298946e-03 2.000000e-01  1.000000e+00  
-2.500000e-01  -1.750000e+00  -1.750000e+00  0  2199 0  2.939343e-04 2.552511e-02 1.476689e-03   1.454421e-02 -2.251431e-21 -3.905767e-03 2.000000e-01  1.000000e+00  
0.000000e+00  -2.000000e+00  -2.000000e+00  0  2104 0  3.135914e-04 3.086032e-02 -3.051753e-03   -1.892334e-02 -2.935638e-19 -2.002402e-03 2.000000e-01  1.000000e+00  
0.000000e+00  -1.750000e+00  -2.000000e+00  0  2112 0  3.431030e-04 2.695698e-02 -1.508286e-03   -1.644553e-02 -4.230335e-19 -1.632630e-03 2.000000e-01  1.000000e+00  
0.000000e+00  -2.000000e+00  -1.750000e+00  0  2192 0  3.135914e-04 3.086032e-02 3.051753e-03   1.892334e-02 3.393309e-19 -2.002402e-03 2.000000e-01  1.000000e+00  
0.000000e+00  -1.750000e+00  -1.750000e+00  0  2200 0  3.431030e-04 2.695698e-02 1.508286e-03   1.644553e-02 2.882024e-20 -1.632630e-03 2.000000e-01  1.000000e+00  
-1.750000e+00  -1.500000e+00  -2.000000e+00  0  1087 0  1.180032e-04 1.530529e-03 -1.180032e-04   -5.036222e-04 -2.968648e-20 -5.036222e-04 2.000000e-01  1.000000e+00  
-2.000000e+00  -1.500000e+00  -2.000000e+00  0  1086 0  -1.180032e-04 1.530529e-03 -1.180032e-04   -5.036222e-04 -1.552096e-20 5.036222e-04 2.000000e-01  1.000000e+00  
-1.750000e+00  -1.500000e+00  -1.750000e+00  0  1208 0  1.180032e-04 1.530529e-03 1.180032e-04   5.036222e-04 -6.520237e-21 -5.036222e-04 2.000000e-01  1.000000e+00  
-2.000000e+00  -1.500000e+00  -1.750000e+00  0  1207 0  -1.180032e-04 1.530529e-03 1.180032e-04   5.036222e-04 1.357714e-20 5.036222e-04 2.000000e-01  1.000000e+00  
-1.500000e+00  -1.500000e+00  -2.000000e+00  0  1088 0  2.923326e-04 2.385774e-03 -2.194692e-04   -1.000767e-03 -2.102826e-20 -1.546817e-03 2.000000e-01  1.000000e+00  
-1.500000e+00  -1.500000e+00  -1.750000e+00  0  1209 0  2.923326e-04 2.385774e-03 2.194692e-04   1.000767e-03 -4.185667e-20 -1.546817e-03 2.000000e-01  1.000000e+00  
-1.250000e+00  -1.500000e+00  -2.000000e+00  0  2115 0  6.345155e-04 4.791130e-03 -5.688889e-04   -2.142807e-03 -1.136809e-19 -2.756776e-03 2.000000e-01  1.000000e+00  
-1.250000e+00  -1.500000e+00  -1.750000e+00  0  2203 0  6.345155e-04 4.791130e-03 5.688889e-04   2.142807e-03 -6.248091e-20 -2.756776e-03 2.000000e-01  1.000000e+00  
-1.000000e+00  -1.500000e+00  -2.000000e+00  0  2116 0  7.737269e-04 7.516011e-03 -1.086587e-03   -4.029201e-03 -2.288066e-19 -3.866527e-03 2.000000e-01  1.000000e+00  
-1.000000e+00  -1.500000e+00  -1.750000e+00  0  2204 0  7.737269e-04 7.516011e-03 1.086587e-03   4.029201e-03 -1.062864e-19 -3.866527e-03 2.000000e-01  1.000000e+00  
-7.500000e-01  -1.500000e+00  -2.000000e+00  0  2117 0  1.039616e-03 1.208896e-02 -1.737346e-03   -6.465629e-03 -1.816012e-19 -4.584886e-03 2.000000e-01  1.000000e+00  
-7.500000e-01  -1.500000e+00  -1.750000e+00  0  2205 0  1.039616e-03 1.208896e-02 1.737346e-03   6.465629e-03 -5.526112e-20 -4.584886e-03 2.000000e-01  1.000000e+00  
-5.000000e-01  -1.500000e+00  -2.000000e+00  0  2118 0  1.022085e-03 1.592332e-02 -2.770895e-03   -9.396764e-03 -1.544183e-19 -4.484742e-03 2.000000e-01  1.000000e+00  
-5.000000e-01  -1.500000e+00  -1.750000e+00  0  2206 0  1.022085e-03 1.592332e-02 2.770895e-03   9.396764e-03 -6.710710e-22 -4.484742e-03 2.000000e-01  1.000000e+00  
-2.500000e-01  -1.500000e+00  -2.000000e+00  0  2119 0  6.554115e-04 2.015829e-02 -3.434470e-03   -1.188202e-02 -5.914393e-20 -3.292524e-03 2.000000e-01  1.000000e+00  
-2.500000e-01  -1.500000e+00  -1.750000e+00  0  2207 0  6.554115e-04 2.015829e-02 3.434470e-03   1.188202e-02 -9.194113e-21 -3.292524e-03 2.000000e-01  1.000000e+00  
0.000000e+00  -1.500000e+00  -2.000000e+00  0  2120 0  3.594021e-04 2.216963e-02 -3.981571e-03   -1.349309e-02 -4.680604e-19 -1.239723e-03 2.000000e-01  1.000000e+00  
0.000000e+00  -1.500000e+00  -1.750000e+00  0  2208 0  3.594021e-04 2.216963e-02 3.981571e-03   1.349309e-02 -9.832090e-20 -1.239723e-03 2.000000e-01  1.000000e+00  
-1.750000e+00  -1.250000e+00  -2.000000e+00  0  3012 0  1.096975e-04 1.075128e-03 -1.096975e-04   -3.604256e-04 -1.389046e-20 -3.604256e-04 2.000000e-01  1.000000e+00  
-2.000000e+00  -1.250000e+00  -2.000000e+00  0  3011 0  -1.096975e-04 1.075128e-03 -1.096975e-04   -3.604256e-04 -1.920936e-20 3.604256e-04 2.000000e-01  1.000000e+00  
-1.750000e+00  -1.250000e+00  -1.750000e+00  0  3100 0  1.096975e-04 1.075128e-03 1.096975e-04   3.604256e-04 -9.003352e-21 -3.604256e-04 2.000000e-01  1.000000e+00  
-2.000000e+00  -1.250000e+00  -1.750000e+00  0  3099 0  -1.096975e-04 1.075128e-03 1.096975e-04   3.604256e-04 2.068462e-20 3.604256e-04 2.000000e-01  1.000000e+00  
-1.500000e+00  -1.250000e+00  -2.000000e+00  0  3013 0  3.214614e-04 1.770512e-03 -2.374003e-04   -7.252904e-04 3.975581e-21 -1.141201e-03 2.000000e-01  1.000000e+00  
-1.500000e+00  -1.250000e+00  -1.750000e+00  0  3101 0  3.214614e-04 1.770512e-03 2.374003e-04   7.252904e-04 -2.373474e-20 -1.141201e-03 2.000000e-01  1.000000e+00  
-1.250000e+00  -1.250000e+00  -2.000000e+00  0  3779 0  6.017188e-04 3.215623e-03 -5.425708e-04   -1.508856e-03 -6.365182e-20 -1.986413e-03 2.000000e-01  1.000000e+00  
-1.250000e+00  -1.250000e+00  -1.750000e+00  0  3843 0  6.017188e-04 3.215623e-03 5.425708e-04   1.508856e-03 -5.679873e-20 -1.986413e-03 2.000000e-01  1.000000e+00  
-1.000000e+00  -1.250000e+00  -2.000000e+00  0  3780 0  8.457248e-04 5.447222e-03 -1.063032e-03   -2.824007e-03 -1.266874e-19 -2.834705e-03 2.000000e-01  1.000000e+00  
-1.000000e+00  -1.250000e+00  -1.750000e+00  0  3844 0  8.457248e-04 5.447222e-03 1.063032e-03   2.824007e-03 -1.539930e-19 -2.834705e-03 2.000000e-01  1.000000e+00  
-7.500000e-01  -1.250000e+00  -2.000000e+00  0  3781 0  1.010901e-03 8.122135e-03 -1.717579e-03   -4.564650e-03 -5.434770e-20 -3.327941e-03 2.000000e-01  1.000000e+00  
-7.500000e-01  -1.250000e+00  -1.750000e+00  0  3845 0  1.010901e-03 8.122135e-03 1.717579e-03   4.564650e-03 -1.946057e-19 -3.327941e-03 2.000000e-01  1.000000e+00  
-5.000000e-01  -1.250000e+00  -2.000000e+00  0  3782 0  1.039406e-03 1.105663e-02 -2.596716e-03   -6.470034e-03 -2.029168e-19 -3.227825e-03 2.000000e-01  1.000000e+00  
-5.000000e-01  -1.250000e+00  -1.750000e+00  0  3846 0  1.039406e-03 1.105663e-02 2.596716e-03   6.470034e-03 1.569341e-20 -3.227825e-03 2.000000e-01  1.000000e+00  
-2.500000e-01  -1.250000e+00  -2.000000e+00  0  3783 0  8.138533e-04 1.332652e-02 -3.488598e-03   -8.101993e-03 -3.427040e-19 -2.380967e-03 2.000000e-01  1.000000e+00  
-2.500000e-01  -1.250000e+00  -1.750000e+00  0  3847 0  8.138533e-04 1.332652e-02 3.488598e-03   8.101993e-03 7.438414e-20 -2.380967e-03 2.000000e-01  1.000000e+00  
0.000000e+00  -1.250000e+00  -2.000000e+00  0  3784 0  3.295776e-04 1.471342e-02 -4.163621e-03   -9.044974e-03 -4.869223e-19 -8.520153e-04 2.000000e-01  1.000000e+00  
0.000000e+00  -1.250000e+00  -1.750000e+00  0  3848 0  3.295776e-04 1.471342e-02 4.163621e-03   9.044974e-03 1.710062e-19 -8.520153e-04 2.000000e-01  1.000000e+00  
-1.750000e+00  -1.000000e+00  -2.000000e+00  0  3023 0  8.603585e-05 6.836609e-04 -8.603585e-05   -2.345085e-04 -1.099642e-20 -2.345085e-04 2.000000e-01  1.000000e+00  
-2.000000e+00  -1.000000e+00  -2.000000e+00  0  3022 0  -8.603585e-05 6.836609e-04 -8.603585e-05   -2.345085e-04 -7.345687e-21 2.345085e-04 2.000000e-01  1.000000e+00  
-1.750000e+00  -1.000000e+00  -1.750000e+00  0  3111 0  8.603585e-05 6.836609e-04 8.603585e-05   2.345085e-04 -5.957334e-21 -2.345085e-04 2.000000e-01  1.000000e+00  
-2.000000e+00  -1.000000e+00  -1.750000e+00  0  3110 0  -8.603585e-05 6.836609e-04 8.603585e-05   2.345085e-04 2.055682e-20 2.345085e-04 2.000000e-01  1.000000e+00  
-1.500000e+00  -1.000000e+00  -2.000000e+00  0  3024 0  2.775334e-04 1.128851e-03 -1.967325e-04   -4.602656e-04 -3.071934e-20 -7.461317e-04 2.000000e-01  1.000000e+00  
-1.500000e+00  -1.000000e+00  -1.750000e+00  0  3112 0  2.775334e-04 1.128851e-03 1.967325e-04   4.602656e-04 1.502217e-20 -7.461317e-04 2.000000e-01  1.000000e+00  
-1.250000e+00  -1.000000e+00  -2.000000e+00  0  3787 0  4.865970e-04 1.960712e-03 -4.305476e-04   -9.448949e-04 -8.867491e-20 -1.294613e-03 2.000000e-01  1.000000e+00  
-1.250000e+00  -1.000000e+00  -1.750000e+00  0  3851 0  4.865970e-04 1.960712e-03 4.305476e-04   9.448949e-04 -1.038020e-20 -1.294613e-03 2.000000e-01  1.000000e+00  
-1.000000e+00  -1.000000e+00  -2.000000e+00  0  3788 0  7.228226e-04 3.341251e-03 -8.444998e-04   -1.739142e-03 -7.955286e-20 -1.834902e-03 2.000000e-01  1.000000e+00  
-1.000000e+00  -1.000000e+00  -1.750000e+00  0  3852 0  7.228226e-04 3.341251e-03 8.444998e-04   1.739142e-03 -1.158075e-19 -1.834902e-03 2.000000e-01  1.000000e+00  
-7.500000e-01  -1.000000e+00  -2.000000e+00  0  3789 0  8.463273e-04 4.938926e-03 -1.375389e-03   -2.825441e-03 -1.195660e-19 -2.165500e-03 2.000000e-01  1.000000e+00  
-7.500000e-01  -1.000000e+00  -1.750000e+00  0  3853 0  8.463273e-04 4.938926e-03 1.375389e-03   2.825441e-03 -2.019390e-19 -2.165500e-03 2.000000e-01  1.000000e+00  
-5.000000e-01  -1.000000e+00  -2.000000e+00  0  3790 0  7.749984e-04 6.788811e-03 -1.804163e-03   -4.032940e-03 -1.576862e-19 -2.100192e-03 2.000000e-01  1.000000e+00  
-5.000000e-01  -1.000000e+00  -1.750000e+00  0  3854 0  7.749984e-04 6.788811e-03 1.804163e-03   4.032940e-03 4.341689e-20 -2.100192e-03 2.000000e-01  1.000000e+00  
-2.500000e-01  -1.000000e+00  -2.000000e+00  0  3791 0  5.210394e-04 8.226781e-03 -1.957592e-03   -5.104127e-03 -2.053531e-19 -1.544876e-03 2.000000e-01  1.000000e+00  
-2.500000e-01  -1.000000e+00  -1.750000e+00  0  3855 0  5.210394e-04 8.226781e-03 1.957592e-03   5.104127e-03 -5.578951e-21 -1.544876e-03 2.000000e-01  1.000000e+00  
0.000000e+00  -1.000000e+00  -2.000000e+00  0  3792 0  1.646451e-04 9.128634e-03 -1.915384e-03   -5.720815e-03 -2.925315e-19 -5.582711e-04 2.000000e-01  1.000000e+00  
0.000000e+00  -1.000000e+00  -1.750000e+00  0  3856 0  1.646451e-04 9.128634e-03 1.915384e-03   5.720815e-03 1.848547e-19 -5.582711e-04 2.000000e-01  1.000000e+00  
-1.750000e+00  -7.500000e-01  -2.000000e+00  0  3034 0  5.895213e-05 3.936850e-04 -5.895213e-05   -1.384968e-04 -1.070338e-20 -1.384968e-04 2.000000e-01  1.000000e+00  
-2.000000e+00  -7.500000e-01  -2.000000e+00  0  3033 0  -5.895213e-05 3.936850e-04 -5.895213e-05   -1.384968e-04 -3.381489e-21 1.384968e-04 2.000000e-01  1.000000e+00  
-1.750000e+00  -7.500000e-01  -1.750000e+00  0  3122 0  5.895213e-05 3.936850e-04 5.895213e-05   1.384968e-04 -4.132157e-22 -1.384968e-04 2.000000e-01  1.000000e+00  
-2.000000e+00  -7.500000e-01  -1.750000e+00  0  3121 0  -5.895213e-05 3.936850e-04 5.895213e-05   1.384968e-04 1.499601e-20 1.384968e-04 2.000000e-01  1.000000e+00  
-1.500000e+00  -7.500000e-01  -2.000000e+00  0  3035 0  1.935168e-04 6.212018e-04 -1.298422e-04   -2.576646e-04 -4.249074e-20 -4.341014e-04 2.000000e-01  1.000000e+00  
-1.500000e+00  -7.500000e-01  -1.750000e+00  0  3123 0  1.935168e-04 6.212018e-04 1.298422e-04   2.576646e-04 1.964988e-20 -4.341014e-04 2.000000e-01  1.000000e+00  
-1.250000e+00  -7.500000e-01  -2.000000e+00  0  3795 0  3.395017e-04 1.073952e-03 -2.822381e-04   -5.222052e-04 -1.058712e-19 -7.577934e-04 2.000000e-01  1.000000e+00  
-1.250000e+00  -7.500000e-01  -1.750000e+00  0  3859 0  3.395017e-04 1.073952e-03 2.822381e-04   5.222052e-04 1.333195e-20 -7.577934e-04 2.000000e-01  1.000000e+00  
-1.000000e+00  -7.500000e-01  -2.000000e+00  0  3796 0  4.866672e-04 1.755421e-03 -5.319138e-04   -9.456745e-04 -1.182839e-19 -1.060030e-03 2.000000e-01  1.000000e+00  
-1.000000e+00  -7.500000e-01  -1.750000e+00  0  3860 0  4.866672e-04 1.755421e-03 5.319138e-04   9.456745e-04 -4.153160e-20 -1.060030e-03 2.000000e-01  1.000000e+00  
-7.500000e-01  -7.500000e-01  -2.000000e+00  0  3797 0  6.016400e-04 2.598950e-03 -9.355262e-04   -1.510998e-03 -1.829399e-19 -1.248267e-03 2.000000e-01  1.000000e+00  
-7.500000e-01  -7.500000e-01  -1.750000e+00  0  3861 0  6.016400e-04 2.598950e-03 9.355262e-04   1.510998e-03 -7.621938e-20 -1.248267e-03 2.000000e-01  1.000000e+00  
-5.000000e-01  -7.500000e-01  -2.000000e+00  0  3798 0  6.340902e-04 3.506852e-03 -1.545735e-03   -2.146623e-03 -9.883006e-20 -1.214122e-03 2.000000e-01  1.000000e+00  
-5.000000e-01  -7.500000e-01  -1.750000e+00  0  3862 0  6.340902e-04 3.506852e-03 1.545735e-03   2.146623e-03 7.712310e-20 -1.214122e-03 2.000000e-01  1.000000e+00  
-2.500000e-01  -7.500000e-01  -2.000000e+00  0  3799 0  5.112957e-04 4.298895e-03 -2.279108e-03   -2.728660e-03 -1.314555e-19 -8.967645e-04 2.000000e-01  1.000000e+00  
-2.500000e-01  -7.500000e-01  -1.750000e+00  0  3863 0  5.112957e-04 4.298895e-03 2.279108e-03   2.728660e-03 2.450353e-20 -8.967645e-04 2.000000e-01  1.000000e+00  
0.000000e+00  -7.500000e-01  -2.000000e+00  0  3800 0  1.971152e-04 4.769278e-03 -2.805733e-03   -3.084442e-03 -2.002447e-19 -3.330689e-04 2.000000e-01  1.000000e+00  
0.000000e+00  -7.500000e-01  -1.750000e+00  0  3864 0  1.971152e-04 4.769278e-03 2.805733e-03   3.084442e-03 1.088916e-19 -3.330689e-04 2.000000e-01  1.000000e+00  
-1.750000e+00  -5.000000e-01  -2.000000e+00  0  3045 0  3.325337e-05 2.092740e-04 -3.325337e-05   -7.576577e-05 -6.317316e-21 -7.576577e-05 2.000000e-01  1.000000e+00  
-2.000000e+00  -5.000000e-01  -2.000000e+00  0  3044 0  -3.325337e-05 2.092740e-04 -3.325337e-05   -7.576577e-05 -1.210356e-21 7.576577e-05 2.000000e-01  1.000000e+00  
-1.750000e+00  -5.000000e-01  -1.750000e+00  0  3133 0  3.325337e-05 2.092740e-04 3.325337e-05   7.576577e-05 -2.111203e-22 -7.576577e-05 2.000000e-01  1.000000e+00  
-2.000000e+00  -5.000000e-01  -1.750000e+00  0  3132 0  -3.325337e-05 2.092740e-04 3.325337e-05   7.576577e-05 7.688817e-21 7.576577e-05 2.000000e-01  1.000000e+00  
-1.500000e+00  -5.000000e-01  -2.000000e+00  0  3046 0  1.057527e-04 3.094636e-04 -6.703759e-05   -1.327912e-04 -1.741522e-20 -2.336330e-04 2.000000e-01  1.000000e+00  
-1.500000e+00  -5.000000e-01  -1.750000e+00  0  3134 0  1.057527e-04 3.094636e-04 6.703759e-05   1.327912e-04 -1.998007e-21 -2.336330e-04 2.000000e-01  1.000000e+00  
-1.250000e+00  -5.000000e-01  -2.000000e+00  0  3803 0  1.935707e-04 5.210052e-04 -1.517642e-04   -2.579328e-04 -5.241223e-20 -4.051162e-04 2.000000e-01  1.000000e+00  
-1.250000e+00  -5.000000e-01  -1.750000e+00  0  3867 0  1.935707e-04 5.210052e-04 1.517642e-04   2.579328e-04 -3.552029e-21 -4.051162e-04 2.000000e-01  1.000000e+00  
-1.000000e+00  -5.000000e-01  -2.000000e+00  0  3804 0  2.777741e-04 8.225631e-04 -2.885193e-04   -4.611326e-04 -6.904942e-20 -5.635510e-04 2.000000e-01  1.000000e+00  
-1.000000e+00  -5.000000e-01  -1.750000e+00  0  3868 0  2.777741e-04 8.225631e-04 2.885193e-04   4.611326e-04 -2.396090e-20 -5.635510e-04 2.000000e-01  1.000000e+00  
-7.500000e-01  -5.000000e-01  -2.000000e+00  0  3805 0  3.220243e-04 1.192383e-03 -4.242421e-04   -7.272252e-04 -6.442313e-20 -6.572017e-04 2.000000e-01  1.000000e+00  
-7.500000e-01  -5.000000e-01  -1.750000e+00  0  3869 0  3.220243e-04 1.192383e-03 4.242421e-04   7.272252e-04 -4.780590e-20 -6.572017e-04 2.000000e-01  1.000000e+00  
-5.000000e-01  -5.000000e-01  -2.000000e+00  0  3806 0  2.932154e-04 1.535439e-03 -4.688361e-04   -1.004204e-03 -1.186342e-20 -6.284074e-04 2.000000e-01  1.000000e+00  
-5.000000e-01  -5.000000e-01  -1.750000e+00  0  3870 0  2.932154e-04 1.535439e-03 4.688361e-04   1.004204e-03 5.669884e-22 -6.284074e-04 2.000000e-01  1.000000e+00  
-2.500000e-01  -5.000000e-01  -2.000000e+00  0  3807 0  1.970138e-04 1.801040e-03 -3.945858e-04   -1.223339e-03 -6.231762e-20 -4.538604e-04 2.000000e-01  1.000000e+00  
-2.500000e-01  -5.000000e-01  -1.750000e+00  0  3871 0  1.970138e-04 1.801040e-03 3.945858e-04   1.223339e-03 -1.673852e-20 -4.538604e-04 2.000000e-01  1.000000e+00  
0.000000e+00  -5.000000e-01  -2.000000e+00  0  3808 0  6.912014e-05 1.932773e-03 -2.970075e-04   -1.340670e-03 -1.353562e-19 -1.663527e-04 2.000000e-01  1.000000e+00  
0.000000e+00  -5.000000e-01  -1.750000e+00  0  3872 0  6.912014e-05 1.932773e-03 2.970075e-04   1.340670e-03 2.026966e-20 -1.663527e-04 2.000000e-01  1.000000e+00  
-1.750000e+00  -2.500000e-01  -2.000000e+00  0  3056 0  1.080024e-05 1.211668e-04 -1.080024e-05   -4.525238e-05 -2.440361e-21 -4.525238e-05 2.000000e-01  1.000000e+00  
-2.000000e+00  -2.500000e-01  -2.000000e+00  0  3055 0  -1.080024e-05 1.211668e-04 -1.080024e-05   -4.525238e-05 7.045779e-22 4.525238e-05 2.000000e-01  1.000000e+00  
-1.750000e+00  -2.500000e-01  -1.750000e+00  0  3144 0  1.080024e-05 1.211668e-04 1.080024e-05   4.525238e-05 8.473067e-22 -4.525238e-05 2.000000e-01  1.000000e+00  
-2.000000e+00  -2.500000e-01  -1.750000e+00  0  3143 0  -1.080024e-05 1.211668e-04 1.080024e-05   4.525238e-05 3.621694e-21 4.525238e-05 2.000000e-01  1.000000e+00  
-1.500000e+00  -2.500000e-01  -2.000000e+00  0  3057 0  3.326380e-05 1.711405e-04 -2.037613e-05   -7.585097e-05 -3.327208e-21 -1.391088e-04 2.000000e-01  1.000000e+00  
-1.500000e+00  -2.500000e-01  -1.750000e+00  0  3145 0  3.326380e-05 1.711405e-04 2.037613e-05   7.585097e-05 -1.912478e-21 -1.391088e-04 2.000000e-01  1.000000e+00  
-1.250000e+00  -2.500000e-01  -2.000000e+00  0  3811 0  5.898231e-05 2.662427e-04 -4.037102e-05   -1.388130e-04 -1.389479e-20 -2.363625e-04 2.000000e-01  1.000000e+00  
-1.250000e+00  -2.500000e-01  -1.750000e+00  0  3875 0  5.898231e-05 2.662427e-04 4.037102e-05   1.388130e-04 -7.899576e-21 -2.363625e-04 2.000000e-01  1.000000e+00  
-1.000000e+00  -2.500000e-01  -2.000000e+00  0  3812 0  8.605187e-05 3.999923e-04 -8.540587e-05   -2.352653e-04 -2.833944e-20 -3.239830e-04 2.000000e-01  1.000000e+00  
-1.000000e+00  -2.500000e-01  -1.750000e+00  0  3876 0  8.605187e-05 3.999923e-04 8.540587e-05   2.352653e-04 -1.176971e-20 -3.239830e-04 2.000000e-01  1.000000e+00  
-7.500000e-01  -2.500000e-01  -2.000000e+00  0  3813 0  1.096222e-04 5.603356e-04 -1.886300e-04   -3.618174e-04 -2.542815e-20 -3.751753e-04 2.000000e-01  1.000000e+00  
-7.500000e-01  -2.500000e-01  -1.750000e+00  0  3877 0  1.096222e-04 5.603356e-04 1.886300e-04   3.618174e-04 -1.739185e-20 -3.751753e-04 2.000000e-01  1.000000e+00  
-5.000000e-01  -2.500000e-01  -2.000000e+00  0  3814 0  1.177962e-04 7.322042e-04 -3.742081e-04   -5.057133e-04 -2.583534e-20 -3.606741e-04 2.000000e-01  1.000000e+00  
-5.000000e-01  -2.500000e-01  -1.750000e+00  0  3878 0  1.177962e-04 7.322042e-04 3.742081e-04   5.057133e-04 1.026560e-20 -3.606741e-04 2.000000e-01  1.000000e+00  
-2.500000e-01  -2.500000e-01  -2.000000e+00  0  3815 0  9.467020e-05 8.827220e-04 -6.032504e-04   -6.385071e-04 -2.450587e-20 -2.641880e-04 2.000000e-01  1.000000e+00  
-2.500000e-01  -2.500000e-01  -1.750000e+00  0  3879 0  9.467020e-05 8.827220e-04 6.032504e-04   6.385071e-04 1.199664e-20 -2.641880e-04 2.000000e-01  1.000000e+00  
0.000000e+00  -2.500000e-01  -2.000000e+00  0  3816 0  3.696299e-05 9.737734e-04 -7.680752e-04   -7.203118e-04 -4.595758e-20 -9.721221e-05 2.000000e-01  1.000000e+00  
0.000000e+00  -2.500000e-01  -1.750000e+00  0  3880 0  3.696299e-05 9.737734e-04 7.680752e-04   7.203118e-04 6.714682e-21 -9.721221e-05 2.000000e-01  1.000000e+00  
-1.750000e+00  0.000000e+00  -2.000000e+00  0  3067 0  -1.080024e-05 1.211668e-04 1.080024e-05   -4.525238e-05 -1.400810e-21 -4.525238e-05 2.000000e-01  1.000000e+00  
-2.000000e+00  0.000000e+00  -2.000000e+00  0  3066 0  1.080024e-05 1.211668e-04 1.080024e-05   -4.525238e-05 6.028932e-22 4.525238e-05 2.000000e-01  1.000000e+00  
-1.750000e+00  0.000000e+00  -1.750000e+00  0  3155 0  -1.080024e-05 1.211668e-04 -1.080024e-05   4.525238e-05 2.608948e-21 -4.525238e-05 2.000000e-01  1.000000e+00  
-2.000000e+00  0.000000e+00  -1.750000e+00  0  3154 0  1.080024e-05 1.211668e-04 -1.080024e-05   4.525238e-05 2.871442e-21 4.525238e-05 2.000000e-01  1.000000e+00  
-1.500000e+00  0.000000e+00  -2.000000e+00  0  3068 0  -3.326380e-05 1.711405e-04 2.037613e-05   -7.585097e-05 -1.704785e-21 -1.391088e-04 2.000000e-01  1.000000e+00  
-1.500000e+00  0.000000e+00  -1.750000e+00  0  3156 0  -3.326380e-05 1.711405e-04 -2.037613e-05   7.585097e-05 4.706086e-21 -1.391088e-04 2.000000e-01  1.000000e+00  
-1.250000e+00  0.000000e+00  -2.000000e+00  0  3819 0  -5.898231e-05 2.662427e-04 4.037102e-05   -1.388130e-04 9.656193e-22 -2.363625e-04 2.000000e-01  1.000000e+00  
-1.250000e+00  0.000000e+00  -1.750000e+00  0  3883 0  -5.898231e-05 2.662427e-04 -4.037102e-05   1.388130e-04 -1.391732e-21 -2.363625e-04 2.000000e-01  1.000000e+00  
-1.000000e+00  0.000000e+00  -2.000000e+00  0  3820 0  -8.605187e-05 3.999923e-04 8.540587e-05   -2.352653e-04 3.393479e-21 -3.239830e-04 2.000000e-01  1.000000e+00  
-1.000000e+00  0.000000e+00  -1.750000e+00  0  3884 0  -8.605187e-05 3.999923e-04 -8.540587e-05   2.352653e-04 -3.735390e-21 -3.239830e-04 2.000000e-01  1.000000e+00  
-7.500000e-01  0.000000e+00  -2.000000e+00  0  3821 0  -1.096222e-04 5.603356e-04 1.886300e-04   -3.618174e-04 -2.943151e-21 -3.751753e-04 2.000000e-01  1.000000e+00  
-7.500000e-01  0.000000e+00  -1.750000e+00  0  3885 0  -1.096222e-04 5.603356e-04 -1.886300e-04   3.618174e-04 8.981013e-21 -3.751753e-04 2.000000e-01  1.000000e+00  
-5.000000e-01  0.000000e+00  -2.000000e+00  0  3822 0  -1.177962e-04 7.322042e-04 3.742081e-04   -5.057133e-04 9.566558e-21 -3.606741e-04 2.000000e-01  1.000000e+00  
-5.000000e-01  0.000000e+00  -1.750000e+00  0  3886 0  -1.177962e-04 7.322042e-04 -3.742081e-04   5.057133e-04 -1.584305e-20 -3.606741e-04 2.000000e-01  1.000000e+00  
-2.500000e-01  0.000000e+00  -2.000000e+00  0  3823 0  -9.467020e-05 8.827220e-04 6.032504e-04   -6.385071e-04 -9.447411e-21 -2.641880e-04 2.000000e-01  1.000000e+00  
-2.500000e-01  0.000000e+00  -1.750000e+00  0  3887 0  -9.467020e-05 8.827220e-04 -6.032504e-04   6.385071e-04 -1.608817e-20 -2.641880e-04 2.000000e-01  1.000000e+00  
0.000000e+00  0.000000e+00  -2.000000e+00  0  3824 0  -3.696299e-05 9.737734e-04 7.680752e-04   -7.203118e-04 2.302823e-20 -9.721221e-05 2.000000e-01  1.000000e+00  
0.000000e+00  0.000000e+00  -1.750000e+00  0  3888 0  -3.696299e-05 9.737734e-04 -7.680752e-04   7.203118e-04 1.101128e-20 -9.721221e-05 2.000000e-01  1.000000e+00  
-2.000000e+00  -2.000000e+00  -1.500000e+00  0  1306 0  -5.135165e-05 3.014042e-03 6.874987e-05   2.047533e-03 5.817166e-20 1.334556e-03 2.000000e-01  1.000000e+00  
-1.750000e+00  -2.000000e+00  -1.500000e+00  0  1307 0  5.135165e-05 3.014042e-03 6.874987e-05   2.047533e-03 -1.151056e-20 -1.334556e-03 2.000000e-01  1.000000e+00  
-1.750000e+00  -1.750000e+00  -1.500000e+00  0  1318 0  1.469723e-04 2.814831e-03 1.961265e-04   1.870936e-03 -3.298297e-20 -1.218293e-03 2.000000e-01  1.000000e+00  
-2.000000e+00  -1.750000e+00  -1.500000e+00  0  1317 0  -1.469723e-04 2.814831e-03 1.961265e-04   1.870936e-03 6.709046e-20 1.218293e-03 2.000000e-01  1.000000e+00  
-1.500000e+00  -2.000000e+00  -1.500000e+00  0  1308 0  3.082083e-04 8.171837e-03 3.082083e-04   4.754460e-03 -1.705844e-19 -4.754460e-03 2.000000e-01  1.000000e+00  
-1.500000e+00  -1.750000e+00  -1.500000e+00  0  1319 0  7.880880e-04 6.772540e-03 7.880880e-04   4.180360e-03 -2.126725e-19 -4.180360e-03 2.000000e-01  1.000000e+00  
-1.250000e+00  -2.000000e+00  -1.500000e+00  0  2275 0  2.910855e-04 9.585577e-03 5.218668e-04   9.950400e-03 -3.715255e-19 -8.126135e-03 2.000000e-01  1.000000e+00  
-1.250000e+00  -1.750000e+00  -1.500000e+00  0  2283 0  9.158187e-04 9.433936e-03 1.474102e-03   8.950927e-03 -4.196197e-19 -7.426850e-03 2.000000e-01  1.000000e+00  
-1.000000e+00  -2.000000e+00  -1.500000e+00  0  2276 0  1.045269e-03 2.843822e-02 1.381756e-03   1.956373e-02 -9.201931e-19 -1.315101e-02 2.000000e-01  1.000000e+00  
-1.000000e+00  -1.750000e+00  -1.500000e+00  0  2284 0  2.396866e-03 2.306795e-02 3.386729e-03   1.731720e-02 -7.309020e-19 -1.147061e-02 2.000000e-01  1.000000e+00  
-7.500000e-01  -2.000000e+00  -1.500000e+00  0  2277 0  6.857711e-04 2.973798e-02 2.382545e-03   3.303122e-02 -3.191742e-19 -1.517974e-02 2.000000e-01  1.000000e+00  
-7.500000e-01  -1.750000e+00  -1.500000e+00  0  2285 0  1.947206e-03 2.846968e-02 6.002875e-03   2.915968e-02 4.507411e-20 -1.378203e-02 2.000000e-01  1.000000e+00  
-5.000000e-01  -2.000000e+00  -1.500000e+00  0  2278 0  7.435713e-04 5.825737e-02 2.429714e-03   4.687038e-02 3.898095e-19 -1.565643e-02 2.000000e-01  1.000000e+00  
-5.000000e-01  -1.750000e+00  -1.500000e+00  0  2286 0  2.824096e-03 4.841362e-02 8.775202e-03   4.177332e-02 1.068687e-18 -1.386057e-02 2.000000e-01  1.000000e+00  
-2.500000e-01  -2.000000e+00  -1.500000e+00  0  2279 0  -3.869124e-06 5.794597e-02 1.629152e-03   6.135271e-02 5.135722e-19 -1.220321e-02 2.000000e-01  1.000000e+00  