VARIABLES="X", "Y", "Z", "Maximum Refinment Level", "Temp_ID", "Thread","Ex (corner node)","Ey (corner node)","Ez (corner node)","Bx (center node)","By (center node)","Bz (center node)", "Local Time Step" , "log10(Local Particle Weight)" 
ZONE N=4913, E=4096, DATAPACKING=POINT, ZONETYPE=FEBRICK
-2.000000e+00  -2.000000e+00  -2.000000e+00  0  1064 0  8.624082e-05 -1.026054e-04 -1.346560e-05   -2.334925e-07 1.939053e-07 -1.404642e-06 2.000000e-01  6.250000e-02  
-1.750000e+00  -2.000000e+00  -2.000000e+00  0  1065 0  5.358935e-02 -7.091533e-01 4.175197e-06   2.618775e-06 -1.605477e-05 4.756007e-01 2.000000e-01  6.250000e-02  
-1.750000e+00  -1.750000e+00  -2.000000e+00  0  1076 0  -3.535111e+00 -3.535186e+00 2.076756e-05   5.935997e-06 -6.023051e-06 -1.873903e-05 2.000000e-01  6.250000e-02  
-2.000000e+00  -1.750000e+00  -2.000000e+00  0  1075 0  -7.091020e-01 5.328278e-02 4.925438e-06   1.616336e-05 -2.651234e-06 -4.756560e-01 2.000000e-01  6.250000e-02  
-2.000000e+00  -2.000000e+00  -1.750000e+00  0  1185 0  -7.573532e-05 -6.642165e-05 4.139262e+00   6.826104e-06 4.484492e-05 -4.345760e-07 2.000000e-01  6.250000e-02  
-1.750000e+00  -2.000000e+00  -1.750000e+00  0  1186 0  -5.328554e+00 -3.471805e+00 -2.654537e-01   -4.450797e-01 9.060870e-02 -4.792964e-02 2.000000e-01  6.250000e-02  
-1.750000e+00  -1.750000e+00  -1.750000e+00  0  1197 0  -5.398243e+00 -5.398233e+00 -4.876072e+00   -4.183859e-01 4.183963e-01 -1.223848e-05 2.000000e-01  6.250000e-02  
-2.000000e+00  -1.750000e+00  -1.750000e+00  0  1196 0  -3.471780e+00 -5.328576e+00 -2.654466e-01   -9.058428e-02 4.451151e-01 4.789734e-02 2.000000e-01  6.250000e-02  
-1.500000e+00  -2.000000e+00  -2.000000e+00  0  1066 0  9.498083e+00 1.021888e+00 5.496853e-06   5.266474e-06 -1.717114e-06 2.529993e-01 2.000000e-01  6.250000e-02  
-1.500000e+00  -1.750000e+00  -2.000000e+00  0  1077 0  4.819687e+00 2.345777e+00 -3.587428e-05   -6.495692e-06 1.475876e-06 -8.552096e-01 2.000000e-01  6.250000e-02  
-1.500000e+00  -2.000000e+00  -1.750000e+00  0  1187 0  4.612132e+00 2.799838e-01 3.264997e+00   -3.291611e-01 1.810827e+00 -1.071054e-01 2.000000e-01  6.250000e-02  
-1.500000e+00  -1.750000e+00  -1.750000e+00  0  1198 0  4.488190e+00 3.298287e+00 2.345974e+00   -2.718981e-01 2.127225e+00 -8.781766e-01 2.000000e-01  6.250000e-02  
-1.250000e+00  -2.000000e+00  -2.000000e+00  0  2099 0  9.399307e+00 2.031280e+00 -1.447570e-05   1.315413e-06 1.793162e-06 3.173569e-01 2.000000e-01  6.250000e-02  
-1.250000e+00  -1.750000e+00  -2.000000e+00  0  2107 0  -4.924134e+00 -3.287148e+00 1.229178e-05   -5.010691e-06 -3.981043e-06 -5.303246e-02 2.000000e-01  6.250000e-02  
-1.250000e+00  -2.000000e+00  -1.750000e+00  0  2187 0  -3.446447e+00 -7.982345e-03 -2.172509e+00   -4.895399e-01 4.069796e-01 2.196669e-01 2.000000e-01  6.250000e-02  
-1.250000e+00  -1.750000e+00  -1.750000e+00  0  2195 0  -1.031952e+01 4.639635e+00 3.769972e+00   2.614681e-02 6.672608e-01 -2.866111e-01 2.000000e-01  6.250000e-02  
-1.000000e+00  -2.000000e+00  -2.000000e+00  0  2100 0  7.181373e+00 3.077066e-01 -2.051606e-05   -2.819146e-07 -2.949798e-06 1.312744e-01 2.000000e-01  6.250000e-02  
-1.000000e+00  -1.750000e+00  -2.000000e+00  0  2108 0  -9.400893e-01 6.476530e+00 6.684805e-06   1.101601e-09 9.675969e-07 -2.885248e-01 2.000000e-01  6.250000e-02  
-1.000000e+00  -2.000000e+00  -1.750000e+00  0  2188 0  -4.128852e+00 -1.127145e+00 4.356782e+00   -3.349612e-01 -3.794265e-02 1.217921e-02 2.000000e-01  6.250000e-02  
-1.000000e+00  -1.750000e+00  -1.750000e+00  0  2196 0  -3.765389e-01 3.060403e+00 2.441279e+00   4.157896e-01 8.826710e-02 -7.688749e-01 2.000000e-01  6.250000e-02  
-7.500000e-01  -2.000000e+00  -2.000000e+00  0  2101 0  -7.802852e+00 2.038251e+00 1.289346e-05   1.319979e-06 2.381970e-06 -2.250058e-02 2.000000e-01  6.250000e-02  
-7.500000e-01  -1.750000e+00  -2.000000e+00  0  2109 0  6.744618e+00 1.075086e+01 1.652100e-05   -9.414132e-07 4.618028e-06 -1.343016e-01 2.000000e-01  6.250000e-02  
-7.500000e-01  -2.000000e+00  -1.750000e+00  0  2189 0  7.750938e+00 -1.219407e+00 9.708243e+00   1.060175e-01 1.183535e-01 -2.735060e-01 2.000000e-01  6.250000e-02  
-7.500000e-01  -1.750000e+00  -1.750000e+00  0  2197 0  -7.606103e+00 -2.203660e+00 -2.951435e+00   6.426759e-01 4.034047e-01 -3.629836e-01 2.000000e-01  6.250000e-02  
-5.000000e-01  -2.000000e+00  -2.000000e+00  0  2102 0  -2.764406e-01 -6.317435e+00 5.697733e-06   6.137477e-08 3.608838e-06 4.876267e-01 2.000000e-01  6.250000e-02  
-5.000000e-01  -1.750000e+00  -2.000000e+00  0  2110 0  2.104870e+00 -1.222974e+00 -1.511628e-05   -2.175544e-06 8.087285e-06 1.261608e+00 2.000000e-01  6.250000e-02  
-5.000000e-01  -2.000000e+00  -1.750000e+00  0  2190 0  -1.193054e+00 1.884433e+00 3.979996e+00   4.157744e-01 -7.529422e-01 2.315672e-01 2.000000e-01  6.250000e-02  
-5.000000e-01  -1.750000e+00  -1.750000e+00  0  2198 0  2.111219e+00 -2.324230e+00 -3.907985e+00   5.509365e-01 -1.112205e-01 8.525608e-01 2.000000e-01  6.250000e-02  
-2.500000e-01  -2.000000e+00  -2.000000e+00  0  2103 0  8.145045e+00 1.235705e+00 -5.555518e-06   -6.534924e-07 1.899775e-06 -2.308920e-01 2.000000e-01  6.250000e-02  
-2.500000e-01  -1.750000e+00  -2.000000e+00  0  2111 0  -4.561618e+00 2.109415e+00 -2.608766e-06   -9.292080e-07 3.089108e-06 -1.936421e-02 2.000000e-01  6.250000e-02  
-2.500000e-01  -2.000000e+00  -1.750000e+00  0  2191 0  -3.573955e+00 1.277752e+00 8.129443e-01   2.653907e-01 1.624753e-01 2.113289e-03 2.000000e-01  6.250000e-02  
-2.500000e-01  -1.750000e+00  -1.750000e+00  0  2199 0  2.092989e+00 -4.761500e+00 -6.462693e+00   3.148405e-01 -6.654063e-01 9.853712e-01 2.000000e-01  6.250000e-02  
0.000000e+00  -2.000000e+00  -2.000000e+00  0  2104 0  -8.630281e-05 7.031896e-05 6.842287e-07   -3.433010e-08 -6.413103e-09 -6.646315e-01 2.000000e-01  6.250000e-02  
0.000000e+00  -1.750000e+00  -2.000000e+00  0  2112 0  9.080407e-01 -4.245090e+00 -1.043052e-05   6.426228e-07 -1.152206e-06 -6.280808e-01 2.000000e-01  6.250000e-02  
0.000000e+00  -2.000000e+00  -1.750000e+00  0  2192 0  1.416382e-05 -1.231583e-05 -4.960353e+00   1.282179e-05 -6.692374e-06 -4.725843e-01 2.000000e-01  6.250000e-02  
0.000000e+00  -1.750000e+00  -1.750000e+00  0  2200 0  -1.860150e+00 4.366535e+00 4.950541e+00   -6.215333e-02 -2.369082e-01 -3.507161e-01 2.000000e-01  6.250000e-02  
-1.750000e+00  -1.500000e+00  -2.000000e+00  0  1087 0  2.345769e+00 4.819651e+00 -3.529807e-05   -1.452575e-06 6.400837e-06 8.552077e-01 2.000000e-01  6.250000e-02  
-2.000000e+00  -1.500000e+00  -2.000000e+00  0  1086 0  1.021887e+00 9.498096e+00 5.482291e-06   1.877131e-06 -5.257281e-06 -2.530214e-01 2.000000e-01  6.250000e-02  
-1.750000e+00  -1.500000e+00  -1.750000e+00  0  1208 0  3.298303e+00 4.488193e+00 2.345996e+00   -2.127223e+00 2.719010e-01 8.781776e-01 2.000000e-01  6.250000e-02  
-2.000000e+00  -1.500000e+00  -1.750000e+00  0  1207 0  2.800112e-01 4.612125e+00 3.264980e+00   -1.810822e+00 3.291675e-01 1.070983e-01 2.000000e-01  6.250000e-02  
-1.500000e+00  -1.500000e+00  -2.000000e+00  0  1088 0  -6.674435e+00 -6.674429e+00 -4.779007e-05   -9.391691e-06 9.334456e-06 2.984754e-06 2.000000e-01  6.250000e-02  
-1.500000e+00  -1.500000e+00  -1.750000e+00  0  1209 0  -4.015402e+00 -4.015412e+00 2.018351e-01   -5.666255e-01 5.666243e-01 4.269216e-06 2.000000e-01  6.250000e-02  
-1.250000e+00  -1.500000e+00  -2.000000e+00  0  2115 0  -1.261460e+00 2.168018e+00 -6.590575e-06   1.452105e-06 -1.420041e-06 -5.116364e-01 2.000000e-01  6.250000e-02  
-1.250000e+00  -1.500000e+00  -1.750000e+00  0  2203 0  3.471170e+00 -3.805179e+00 2.466069e+00   1.171225e+00 5.960259e-01 -6.591740e-01 2.000000e-01  6.250000e-02  
-1.000000e+00  -1.500000e+00  -2.000000e+00  0  2116 0  4.476279e+00 1.988354e+00 -5.608466e-06   5.950034e-06 1.608555e-06 7.651464e-01 2.000000e-01  6.250000e-02  
-1.000000e+00  -1.500000e+00  -1.750000e+00  0  2204 0  -2.314190e+00 -6.585627e+00 -8.250677e+00   5.214613e-01 5.087131e-01 1.537509e+00 2.000000e-01  6.250000e-02  
-7.500000e-01  -1.500000e+00  -2.000000e+00  0  2117 0  4.580401e+00 6.696473e+00 -7.015524e-06   2.100695e-06 2.490619e-06 2.544799e+00 2.000000e-01  6.250000e-02  
-7.500000e-01  -1.500000e+00  -1.750000e+00  0  2205 0  6.604910e+00 1.916173e+00 4.162489e+00   -8.699579e-01 9.200724e-01 2.708893e+00 2.000000e-01  6.250000e-02  
-5.000000e-01  -1.500000e+00  -2.000000e+00  0  2118 0  5.978338e+00 1.555219e+00 -1.898776e-05   -9.688591e-07 6.217958e-06 1.171769e+00 2.000000e-01  6.250000e-02  
-5.000000e-01  -1.500000e+00  -1.750000e+00  0  2206 0  -1.770288e+00 -6.347503e+00 5.997444e+00   -1.630121e-01 -2.765486e-01 6.788660e-01 2.000000e-01  6.250000e-02  
-2.500000e-01  -1.500000e+00  -2.000000e+00  0  2119 0  8.378380e+00 -1.614851e+00 -4.847987e-06   -3.050583e-07 1.404415e-06 1.382755e-02 2.000000e-01  6.250000e-02  
-2.500000e-01  -1.500000e+00  -1.750000e+00  0  2207 0  3.808426e+00 -4.880844e+00 5.285853e+00   2.259798e-01 -8.424465e-01 1.005164e-01 2.000000e-01  6.250000e-02  
0.000000e+00  -1.500000e+00  -2.000000e+00  0  2120 0  8.686877e-01 8.141726e-02 1.641067e-06   2.205177e-07 -1.433768e-06 -3.965136e-01 2.000000e-01  6.250000e-02  
0.000000e+00  -1.500000e+00  -1.750000e+00  0  2208 0  -1.935114e+00 -1.983432e-01 3.562964e+00   -7.643539e-01 -1.149532e-01 -3.428900e-01 2.000000e-01  6.250000e-02  
-1.750000e+00  -1.250000e+00  -2.000000e+00  0  3012 0  -3.287155e+00 -4.924111e+00 1.246489e-05   4.021116e-06 5.038897e-06 5.304076e-02 2.000000e-01  6.250000e-02  
-2.000000e+00  -1.250000e+00  -2.000000e+00  0  3011 0  2.031232e+00 9.399344e+00 -1.423786e-05   -1.758511e-06 -1.308350e-06 -3.173550e-01 2.000000e-01  6.250000e-02  
-1.750000e+00  -1.250000e+00  -1.750000e+00  0  3100 0  4.639619e+00 -1.031952e+01 3.769948e+00   -6.672639e-01 -2.614709e-02 2.866149e-01 2.000000e-01  6.250000e-02  
-2.000000e+00  -1.250000e+00  -1.750000e+00  0  3099 0  -7.999330e-03 -3.446446e+00 -2.172503e+00   -4.069857e-01 4.895353e-01 -2.196643e-01 2.000000e-01  6.250000e-02  
-1.500000e+00  -1.250000e+00  -2.000000e+00  0  3013 0  2.168027e+00 -1.261459e+00 -6.678146e-06   1.429002e-06 -1.468908e-06 5.116401e-01 2.000000e-01  6.250000e-02  
-1.500000e+00  -1.250000e+00  -1.750000e+00  0  3101 0  -3.805180e+00 3.471160e+00 2.466077e+00   -5.960239e-01 -1.171226e+00 6.591779e-01 2.000000e-01  6.250000e-02  
-1.250000e+00  -1.250000e+00  -2.000000e+00  0  3779 0  -1.427735e+00 -1.427730e+00 -9.587350e-06   2.129591e-06 -2.170971e-06 -1.201206e-06 2.000000e-01  6.250000e-02  
-1.250000e+00  -1.250000e+00  -1.750000e+00  0  3843 0  -6.130502e+00 -6.130498e+00 -8.296642e+00   1.026002e-01 -1.026004e-01 -1.849531e-07 2.000000e-01  6.250000e-02  
-1.000000e+00  -1.250000e+00  -2.000000e+00  0  3780 0  -3.561934e-01 1.404027e+00 3.726198e-06   3.248078e-06 1.372928e-06 3.811424e-02 2.000000e-01  6.250000e-02  
-1.000000e+00  -1.250000e+00  -1.750000e+00  0  3844 0  -3.911170e+00 -4.390330e+00 -8.556862e-01   4.292114e-01 7.672888e-01 1.764861e-01 2.000000e-01  6.250000e-02  
-7.500000e-01  -1.250000e+00  -2.000000e+00  0  3781 0  5.589870e-02 -7.875956e+00 3.529161e-06   2.172149e-06 1.169503e-06 1.645715e+00 2.000000e-01  6.250000e-02  
-7.500000e-01  -1.250000e+00  -1.750000e+00  0  3845 0  1.032949e+00 1.073415e+00 -4.790673e-02   2.919413e-01 2.086225e+00 6.748535e-01 2.000000e-01  6.250000e-02  
-5.000000e-01  -1.250000e+00  -2.000000e+00  0  3782 0  -6.938162e+00 5.385900e+00 -3.827186e-06   7.312585e-07 2.095953e-06 1.225475e+00 2.000000e-01  6.250000e-02  
-5.000000e-01  -1.250000e+00  -1.750000e+00  0  3846 0  3.220708e-01 4.247407e-01 -4.890559e+00   -3.341854e-01 7.562876e-01 2.453468e-01 2.000000e-01  6.250000e-02  
-2.500000e-01  -1.250000e+00  -2.000000e+00  0  3783 0  9.437035e-01 1.665132e+00 5.517731e-07   3.415634e-07 2.968611e-07 1.094880e+00 2.000000e-01  6.250000e-02  
-2.500000e-01  -1.250000e+00  -1.750000e+00  0  3847 0  -4.470708e-01 -1.534746e+00 -4.477658e+00   -8.575867e-01 4.456620e-01 2.946916e-01 2.000000e-01  6.250000e-02  
0.000000e+00  -1.250000e+00  -2.000000e+00  0  3784 0  6.837755e-03 -1.091295e+01 -1.641924e-06   -4.543024e-07 -3.929143e-07 2.835030e-01 2.000000e-01  6.250000e-02  
0.000000e+00  -1.250000e+00  -1.750000e+00  0  3848 0  1.130359e+00 -7.586611e+00 1.878475e+00   -4.774923e-01 7.177255e-02 7.878447e-02 2.000000e-01  6.250000e-02  
-1.750000e+00  -1.000000e+00  -2.000000e+00  0  3023 0  6.476531e+00 -9.401214e-01 6.796498e-06   -9.749759e-07 -4.677297e-09 2.885318e-01 2.000000e-01  6.250000e-02  
-2.000000e+00  -1.000000e+00  -2.000000e+00  0  3022 0  3.077456e-01 7.181308e+00 -2.049988e-05   2.959978e-06 2.465552e-07 -1.312723e-01 2.000000e-01  6.250000e-02  
-1.750000e+00  -1.000000e+00  -1.750000e+00  0  3111 0  3.060411e+00 -3.765169e-01 2.441295e+00   -8.827089e-02 -4.157907e-01 7.688772e-01 2.000000e-01  6.250000e-02  
-2.000000e+00  -1.000000e+00  -1.750000e+00  0  3110 0  -1.127148e+00 -4.128903e+00 4.356792e+00   3.793375e-02 3.349622e-01 -1.218141e-02 2.000000e-01  6.250000e-02  
-1.500000e+00  -1.000000e+00  -2.000000e+00  0  3024 0  1.988352e+00 4.476255e+00 -5.506490e-06   -1.576918e-06 -5.952973e-06 -7.651440e-01 2.000000e-01  6.250000e-02  
-1.500000e+00  -1.000000e+00  -1.750000e+00  0  3112 0  -6.585637e+00 -2.314161e+00 -8.250683e+00   -5.087116e-01 -5.214623e-01 -1.537508e+00 2.000000e-01  6.250000e-02  
-1.250000e+00  -1.000000e+00  -2.000000e+00  0  3787 0  1.404031e+00 -3.561893e-01 3.612976e-06   -1.358579e-06 -3.280918e-06 -3.811406e-02 2.000000e-01  6.250000e-02  
-1.250000e+00  -1.000000e+00  -1.750000e+00  0  3851 0  -4.390326e+00 -3.911179e+00 -8.556852e-01   -7.672872e-01 -4.292118e-01 -1.764851e-01 2.000000e-01  6.250000e-02  
-1.000000e+00  -1.000000e+00  -2.000000e+00  0  3788 0  4.733473e+00 4.733472e+00 9.149081e-07   -6.412589e-07 6.267394e-07 1.921314e-07 2.000000e-01  6.250000e-02  
-1.000000e+00  -1.000000e+00  -1.750000e+00  0  3852 0  -1.811054e+00 -1.811052e+00 -6.234212e-01   -2.501587e-01 2.501590e-01 -1.184703e-07 2.000000e-01  6.250000e-02  
-7.500000e-01  -1.000000e+00  -2.000000e+00  0  3789 0  7.095828e+00 -5.057968e-01 3.119290e-06   -5.354788e-07 1.547066e-06 -2.550370e+00 2.000000e-01  6.250000e-02  
-7.500000e-01  -1.000000e+00  -1.750000e+00  0  3853 0  2.683791e+00 -1.196237e+00 2.485352e+00   5.236869e-01 2.902644e+00 -2.653744e+00 2.000000e-01  6.250000e-02  
-5.000000e-01  -1.000000e+00  -2.000000e+00  0  3790 0  4.500574e+00 -3.267852e+00 2.808668e-07   -5.957068e-07 -1.731709e-08 -1.382091e+00 2.000000e-01  6.250000e-02  
-5.000000e-01  -1.000000e+00  -1.750000e+00  0  3854 0  1.071188e+00 5.292683e+00 9.181918e-02   7.288381e-01 1.994213e+00 -9.610943e-01 2.000000e-01  6.250000e-02  
-2.500000e-01  -1.000000e+00  -2.000000e+00  0  3791 0  1.197300e+01 -3.024424e+00 -4.607588e-07   -1.751973e-07 1.505992e-08 1.135043e+00 2.000000e-01  6.250000e-02  
-2.500000e-01  -1.000000e+00  -1.750000e+00  0  3855 0  7.521904e+00 4.734265e+00 -3.865559e-01   1.612712e+00 8.211594e-01 5.204698e-01 2.000000e-01  6.250000e-02  
0.000000e+00  -1.000000e+00  -2.000000e+00  0  3792 0  3.119037e+00 1.296720e+01 1.592248e-07   -9.565160e-08 1.005776e-07 1.664784e-01 2.000000e-01  6.250000e-02  
0.000000e+00  -1.000000e+00  -1.750000e+00  0  3856 0  -7.871413e-02 -4.879202e+00 -4.195254e+00   2.525080e+00 9.958759e-02 9.018452e-02 2.000000e-01  6.250000e-02  
-1.750000e+00  -7.500000e-01  -2.000000e+00  0  3034 0  1.075084e+01 6.744637e+00 1.652122e-05   -4.553646e-06 9.018331e-07 1.342986e-01 2.000000e-01  6.250000e-02  
-2.000000e+00  -7.500000e-01  -2.000000e+00  0  3033 0  2.038271e+00 -7.802777e+00 1.316228e-05   -2.338560e-06 -1.338506e-06 2.249959e-02 2.000000e-01  6.250000e-02  
-1.750000e+00  -7.500000e-01  -1.750000e+00  0  3122 0  -2.203669e+00 -7.606124e+00 -2.951437e+00   -4.034019e-01 -6.426761e-01 3.629818e-01 2.000000e-01  6.250000e-02  
-2.000000e+00  -7.500000e-01  -1.750000e+00  0  3121 0  -1.219409e+00 7.750959e+00 9.708235e+00   -1.183505e-01 -1.060137e-01 2.735042e-01 2.000000e-01  6.250000e-02  
-1.500000e+00  -7.500000e-01  -2.000000e+00  0  3035 0  6.696479e+00 4.580404e+00 -6.898602e-06   -2.434452e-06 -2.110111e-06 -2.544799e+00 2.000000e-01  6.250000e-02  
-1.500000e+00  -7.500000e-01  -1.750000e+00  0  3123 0  1.916173e+00 6.604917e+00 4.162496e+00   -9.200716e-01 8.699566e-01 -2.708893e+00 2.000000e-01  6.250000e-02  
-1.250000e+00  -7.500000e-01  -2.000000e+00  0  3795 0  -7.875957e+00 5.590555e-02 3.512285e-06   -1.148147e-06 -2.173471e-06 -1.645713e+00 2.000000e-01  6.250000e-02  
-1.250000e+00  -7.500000e-01  -1.750000e+00  0  3859 0  1.073418e+00 1.032949e+00 -4.790804e-02   -2.086225e+00 -2.919406e-01 -6.748518e-01 2.000000e-01  6.250000e-02  
-1.000000e+00  -7.500000e-01  -2.000000e+00  0  3796 0  -5.057974e-01 7.095826e+00 3.169247e-06   -1.550853e-06 5.255101e-07 2.550370e+00 2.000000e-01  6.250000e-02  
-1.000000e+00  -7.500000e-01  -1.750000e+00  0  3860 0  -1.196237e+00 2.683792e+00 2.485350e+00   -2.902645e+00 -5.236864e-01 2.653744e+00 2.000000e-01  6.250000e-02  
-7.500000e-01  -7.500000e-01  -2.000000e+00  0  3797 0  -2.403083e+00 -2.403083e+00 -1.340716e-06   -5.879512e-07 5.782904e-07 -2.433090e-07 2.000000e-01  6.250000e-02  
-7.500000e-01  -7.500000e-01  -1.750000e+00  0  3861 0  -6.009235e+00 -6.009233e+00 -1.543195e+00   -1.754876e+00 1.754876e+00 -6.288498e-08 2.000000e-01  6.250000e-02  
-5.000000e-01  -7.500000e-01  -2.000000e+00  0  3798 0  4.174730e+00 -2.568060e-01 -5.155871e-08   1.383451e-08 -8.118545e-07 -6.419570e-01 2.000000e-01  6.250000e-02  
-5.000000e-01  -7.500000e-01  -1.750000e+00  0  3862 0  2.700567e-01 -4.285494e+00 -9.620171e-01   -6.428945e-01 1.513929e+00 -6.486586e-01 2.000000e-01  6.250000e-02  
-2.500000e-01  -7.500000e-01  -2.000000e+00  0  3799 0  -1.019883e+01 3.336273e+00 -4.350672e-07   -4.273726e-08 -5.811462e-07 1.102750e-01 2.000000e-01  6.250000e-02  
-2.500000e-01  -7.500000e-01  -1.750000e+00  0  3863 0  2.563585e+00 3.177837e+00 -9.476984e-01   1.026086e+00 -1.426523e-01 -7.982043e-01 2.000000e-01  6.250000e-02  
0.000000e+00  -7.500000e-01  -2.000000e+00  0  3800 0  8.608546e-01 -1.256044e+00 6.649057e-07   -8.136843e-08 -1.035644e-07 -3.242824e-01 2.000000e-01  6.250000e-02  
0.000000e+00  -7.500000e-01  -1.750000e+00  0  3864 0  8.161043e-01 -4.433891e-02 -4.709320e+00   2.544736e+00 1.097339e-01 -2.022882e-01 2.000000e-01  6.250000e-02  
-1.750000e+00  -5.000000e-01  -2.000000e+00  0  3045 0  -1.222981e+00 2.104848e+00 -1.511712e-05   -8.061867e-06 2.172641e-06 -1.261607e+00 2.000000e-01  6.250000e-02  
-2.000000e+00  -5.000000e-01  -2.000000e+00  0  3044 0  -6.317455e+00 -2.764470e-01 5.532092e-06   -3.601179e-06 -6.088382e-08 -4.876297e-01 2.000000e-01  6.250000e-02  
-1.750000e+00  -5.000000e-01  -1.750000e+00  0  3133 0  -2.324228e+00 2.111219e+00 -3.907996e+00   1.112197e-01 -5.509370e-01 -8.525590e-01 2.000000e-01  6.250000e-02  
-2.000000e+00  -5.000000e-01  -1.750000e+00  0  3132 0  1.884423e+00 -1.193055e+00 3.979999e+00   7.529416e-01 -4.157719e-01 -2.315686e-01 2.000000e-01  6.250000e-02  
-1.500000e+00  -5.000000e-01  -2.000000e+00  0  3046 0  1.555225e+00 5.978341e+00 -1.905340e-05   -6.195428e-06 9.721171e-07 -1.171768e+00 2.000000e-01  6.250000e-02  
-1.500000e+00  -5.000000e-01  -1.750000e+00  0  3134 0  -6.347507e+00 -1.770294e+00 5.997440e+00   2.765476e-01 1.630125e-01 -6.788663e-01 2.000000e-01  6.250000e-02  
-1.250000e+00  -5.000000e-01  -2.000000e+00  0  3803 0  5.385903e+00 -6.938166e+00 -3.817866e-06   -2.086513e-06 -7.287716e-07 -1.225476e+00 2.000000e-01  6.250000e-02  
-1.250000e+00  -5.000000e-01  -1.750000e+00  0  3867 0  4.247393e-01 3.220683e-01 -4.890558e+00   -7.562883e-01 3.341856e-01 -2.453475e-01 2.000000e-01  6.250000e-02  
-1.000000e+00  -5.000000e-01  -2.000000e+00  0  3804 0  -3.267851e+00 4.500573e+00 3.372758e-07   1.527937e-08 5.987407e-07 1.382091e+00 2.000000e-01  6.250000e-02  
-1.000000e+00  -5.000000e-01  -1.750000e+00  0  3868 0  5.292684e+00 1.071188e+00 9.181951e-02   -1.994213e+00 -7.288383e-01 9.610944e-01 2.000000e-01  6.250000e-02  
-7.500000e-01  -5.000000e-01  -2.000000e+00  0  3805 0  -2.568061e-01 4.174731e+00 -5.695435e-08   8.086058e-07 -2.072905e-08 6.419567e-01 2.000000e-01  6.250000e-02  
-7.500000e-01  -5.000000e-01  -1.750000e+00  0  3869 0  -4.285493e+00 2.700556e-01 -9.620183e-01   -1.513929e+00 6.428944e-01 6.486587e-01 2.000000e-01  6.250000e-02  
-5.000000e-01  -5.000000e-01  -2.000000e+00  0  3806 0  -8.937755e+00 -8.937756e+00 -4.653586e-07   3.193292e-07 -3.184318e-07 2.938390e-07 2.000000e-01  6.250000e-02  
-5.000000e-01  -5.000000e-01  -1.750000e+00  0  3870 0  -2.035224e+00 -2.035224e+00 7.712753e+00   -1.450294e+00 1.450293e+00 1.329431e-07 2.000000e-01  6.250000e-02  
-2.500000e-01  -5.000000e-01  -2.000000e+00  0  3807 0  1.417891e+00 1.164216e+00 2.590001e-07   -7.487795e-08 -2.079742e-07 4.681024e-01 2.000000e-01  6.250000e-02  
-2.500000e-01  -5.000000e-01  -1.750000e+00  0  3871 0  5.849515e+00 2.137015e+00 1.443876e+00   -7.227413e-01 -7.077462e-01 -3.845200e-01 2.000000e-01  6.250000e-02  
0.000000e+00  -5.000000e-01  -2.000000e+00  0  3808 0  -1.478455e+00 -7.064993e+00 -5.610122e-07   -2.367003e-07 -2.100408e-08 3.816600e-02 2.000000e-01  6.250000e-02  
0.000000e+00  -5.000000e-01  -1.750000e+00  0  3872 0  -8.253069e-02 -1.764410e+00 1.206077e+00   5.067340e-02 -3.438839e-02 9.442438e-02 2.000000e-01  6.250000e-02  
-1.750000e+00  -2.500000e-01  -2.000000e+00  0  3056 0  2.109429e+00 -4.561613e+00 -2.620293e-06   -3.123805e-06 9.248426e-07 1.937064e-02 2.000000e-01  6.250000e-02  
-2.000000e+00  -2.500000e-01  -2.000000e+00  0  3055 0  1.235710e+00 8.145048e+00 -5.583838e-06   -1.921212e-06 6.425967e-07 2.308938e-01 2.000000e-01  6.250000e-02  
-1.750000e+00  -2.500000e-01  -1.750000e+00  0  3144 0  -4.761502e+00 2.093008e+00 -6.462697e+00   6.654027e-01 -3.148397e-01 -9.853656e-01 2.000000e-01  6.250000e-02  
-2.000000e+00  -2.500000e-01  -1.750000e+00  0  3143 0  1.277758e+00 -3.573950e+00 8.129542e-01   -1.624783e-01 -2.653887e-01 -2.112081e-03 2.000000e-01  6.250000e-02  
-1.500000e+00  -2.500000e-01  -2.000000e+00  0  3057 0  -1.614847e+00 8.378378e+00 -4.889441e-06   -1.419896e-06 3.068063e-07 -1.382462e-02 2.000000e-01  6.250000e-02  
-1.500000e+00  -2.500000e-01  -1.750000e+00  0  3145 0  -4.880847e+00 3.808424e+00 5.285853e+00   8.424439e-01 -2.259794e-01 -1.005140e-01 2.000000e-01  6.250000e-02  
-1.250000e+00  -2.500000e-01  -2.000000e+00  0  3811 0  1.665125e+00 9.437063e-01 6.114916e-07   -3.092324e-07 -3.452106e-07 -1.094881e+00 2.000000e-01  6.250000e-02  
-1.250000e+00  -2.500000e-01  -1.750000e+00  0  3875 0  -1.534747e+00 -4.470726e-01 -4.477655e+00   -4.456620e-01 8.575857e-01 -2.946929e-01 2.000000e-01  6.250000e-02  
-1.000000e+00  -2.500000e-01  -2.000000e+00  0  3812 0  -3.024423e+00 1.197300e+01 -4.656765e-07   -1.974144e-08 1.852172e-07 -1.135044e+00 2.000000e-01  6.250000e-02  
-1.000000e+00  -2.500000e-01  -1.750000e+00  0  3876 0  4.734264e+00 7.521906e+00 -3.865584e-01   -8.211588e-01 -1.612713e+00 -5.204699e-01 2.000000e-01  6.250000e-02  
-7.500000e-01  -2.500000e-01  -2.000000e+00  0  3813 0  3.336273e+00 -1.019883e+01 -4.329331e-07   5.864801e-07 4.714838e-08 -1.102749e-01 2.000000e-01  6.250000e-02  
-7.500000e-01  -2.500000e-01  -1.750000e+00  0  3877 0  3.177839e+00 2.563582e+00 -9.477002e-01   1.426523e-01 -1.026086e+00 7.982043e-01 2.000000e-01  6.250000e-02  
-5.000000e-01  -2.500000e-01  -2.000000e+00  0  3814 0  1.164215e+00 1.417893e+00 2.656545e-07   2.106189e-07 7.878907e-08 -4.681021e-01 2.000000e-01  6.250000e-02  
-5.000000e-01  -2.500000e-01  -1.750000e+00  0  3878 0  2.137015e+00 5.849515e+00 1.443875e+00   7.077461e-01 7.227413e-01 3.845202e-01 2.000000e-01  6.250000e-02  
-2.500000e-01  -2.500000e-01  -2.000000e+00  0  3815 0  -1.466045e+00 -1.466045e+00 -1.085069e-06   -1.094941e-07 1.133634e-07 3.141949e-07 2.000000e-01  6.250000e-02  
-2.500000e-01  -2.500000e-01  -1.750000e+00  0  3879 0  3.746158e+00 3.746157e+00 4.931060e+00   2.340583e-01 -2.340582e-01 2.014448e-07 2.000000e-01  6.250000e-02  
0.000000e+00  -2.500000e-01  -2.000000e+00  0  3816 0  -4.366160e-01 -2.582106e+00 1.187357e-07   -8.042769e-09 7.579363e-08 1.446754e-01 2.000000e-01  6.250000e-02  
0.000000e+00  -2.500000e-01  -1.750000e+00  0  3880 0  3.425543e-01 -1.214568e-01 -5.210517e+00   -5.560579e-03 -1.804782e-01 7.964530e-02 2.000000e-01  6.250000e-02  
-1.750000e+00  0.000000e+00  -2.000000e+00  0  3067 0  -4.245052e+00 9.080413e-01 -1.045853e-05   1.132678e-06 -6.532845e-07 6.280823e-01 2.000000e-01  6.250000e-02  
-2.000000e+00  0.000000e+00  -2.000000e+00  0  3066 0  5.882363e-05 -6.717503e-05 6.537628e-07   -6.815715e-09 1.378851e-08 6.646325e-01 2.000000e-01  6.250000e-02  
-1.750000e+00  0.000000e+00  -1.750000e+00  0  3155 0  4.366551e+00 -1.860145e+00 4.950555e+00   2.369080e-01 6.215539e-02 3.507170e-01 2.000000e-01  6.250000e-02  
-2.000000e+00  0.000000e+00  -1.750000e+00  0  3154 0  -1.720221e-05 1.145412e-05 -4.960345e+00   5.773669e-06 -9.887854e-06 4.725851e-01 2.000000e-01  6.250000e-02  
-1.500000e+00  0.000000e+00  -2.000000e+00  0  3068 0  8.141073e-02 8.686889e-01 1.636646e-06   1.410112e-06 -2.227969e-07 3.965150e-01 2.000000e-01  6.250000e-02  
-1.500000e+00  0.000000e+00  -1.750000e+00  0  3156 0  -1.983457e-01 -1.935107e+00 3.562960e+00   1.149545e-01 7.643534e-01 3.428904e-01 2.000000e-01  6.250000e-02  
-1.250000e+00  0.000000e+00  -2.000000e+00  0  3819 0  -1.091295e+01 6.837546e-03 -1.652096e-06   3.652886e-07 4.519813e-07 -2.835034e-01 2.000000e-01  6.250000e-02  
-1.250000e+00  0.000000e+00  -1.750000e+00  0  3883 0  -7.586611e+00 1.130353e+00 1.878470e+00   -7.177094e-02 4.774914e-01 -7.878517e-02 2.000000e-01  6.250000e-02  
-1.000000e+00  0.000000e+00  -2.000000e+00  0  3820 0  1.296721e+01 3.119038e+00 1.480570e-07   -1.176045e-07 1.018389e-07 -1.664782e-01 2.000000e-01  6.250000e-02  
-1.000000e+00  0.000000e+00  -1.750000e+00  0  3884 0  -4.879202e+00 -7.870959e-02 -4.195253e+00   -9.958702e-02 -2.525080e+00 -9.018404e-02 2.000000e-01  6.250000e-02  
-7.500000e-01  0.000000e+00  -2.000000e+00  0  3821 0  -1.256045e+00 8.608557e-01 6.779227e-07   1.035300e-07 8.944897e-08 3.242826e-01 2.000000e-01  6.250000e-02  
-7.500000e-01  0.000000e+00  -1.750000e+00  0  3885 0  -4.433877e-02 8.161036e-01 -4.709321e+00   -1.097339e-01 -2.544736e+00 2.022882e-01 2.000000e-01  6.250000e-02  
-5.000000e-01  0.000000e+00  -2.000000e+00  0  3822 0  -7.064993e+00 -1.478456e+00 -5.577007e-07   2.327150e-08 2.417089e-07 -3.816654e-02 2.000000e-01  6.250000e-02  
-5.000000e-01  0.000000e+00  -1.750000e+00  0  3886 0  -1.764409e+00 -8.252962e-02 1.206077e+00   3.438817e-02 -5.067320e-02 -9.442481e-02 2.000000e-01  6.250000e-02  
-2.500000e-01  0.000000e+00  -2.000000e+00  0  3823 0  -2.582106e+00 -4.366158e-01 1.137703e-07   -7.489556e-08 1.091877e-08 -1.446755e-01 2.000000e-01  6.250000e-02  
-2.500000e-01  0.000000e+00  -1.750000e+00  0  3887 0  -1.214570e-01 3.425542e-01 -5.210516e+00   1.804780e-01 5.560614e-03 -7.964539e-02 2.000000e-01  6.250000e-02  
0.000000e+00  0.000000e+00  -2.000000e+00  0  3824 0  1.752462e-06 1.318418e-06 -1.353462e-06   -7.953970e-10 1.141933e-09 -5.570085e-08 2.000000e-01  6.250000e-02  
0.000000e+00  0.000000e+00  -1.750000e+00  0  3888 0  -3.538160e-07 -2.307636e-07 -1.078332e+00   3.932611e-07 -5.110200e-07 -3.704520e-08 2.000000e-01  6.250000e-02  
-2.000000e+00  -2.000000e+00  -1.500000e+00  0  1306 0  2.070312e-06 1.636885e-06 8.165307e+00   -8.358913e-06 2.910402e-05 4.895193e-07 2.000000e-01  6.250000e-02  
-1.750000e+00  -2.000000e+00  -1.500000e+00  0  1307 0  2.790966e+00 8.285662e-01 3.711415e+00   5.009648e-02 -1.573870e+00 -6.336658e-01 2.000000e-01  6.250000e-02  
-1.750000e+00  -1.750000e+00  -1.500000e+00  0  1318 0  -1.392257e+00 -1.392263e+00 1.180302e+00   1.293512e+00 -1.293515e+00 -5.029029e-06 2.000000e-01  6.250000e-02  
-2.000000e+00  -1.750000e+00  -1.500000e+00  0  1317 0  8.285928e-01 2.790936e+00 3.711441e+00   1.573868e+00 -5.008054e-02 6.336614e-01 2.000000e-01  6.250000e-02  
-1.500000e+00  -2.000000e+00  -1.500000e+00  0  1308 0  -6.620572e+00 3.392625e+00 -8.028145e+00   -1.244508e-01 2.132973e-01 -3.706064e-01 2.000000e-01  6.250000e-02  
-1.500000e+00  -1.750000e+00  -1.500000e+00  0  1319 0  -4.984504e+00 -5.267177e-01 -2.853391e+00   1.175027e-01 7.761288e-01 -4.281693e-01 2.000000e-01  6.250000e-02  
-1.250000e+00  -2.000000e+00  -1.500000e+00  0  2275 0  -2.125217e+00 -3.642215e-01 2.900524e-01   -4.500523e-01 3.455599e-01 1.408887e-01 2.000000e-01  6.250000e-02  
-1.250000e+00  -1.750000e+00  -1.500000e+00  0  2283 0  3.545900e+00 -2.943114e-01 -1.928951e+00   -6.637684e-01 8.506931e-01 -1.069777e+00 2.000000e-01  6.250000e-02  
-1.000000e+00  -2.000000e+00  -1.500000e+00  0  2276 0  9.044170e+00 -3.273598e-02 3.523587e+00   -1.869166e-01 -1.262905e+00 -7.478647e-03 2.000000e-01  6.250000e-02  
-1.000000e+00  -1.750000e+00  -1.500000e+00  0  2284 0  -1.688793e+00 1.636324e+00 -1.087106e+00   1.415614e-01 -2.394383e+00 -1.260106e+00 2.000000e-01  6.250000e-02  
-7.500000e-01  -2.000000e+00  -1.500000e+00  0  2277 0  3.885350e+00 4.960627e-01 4.043119e+00   -1.241897e-01 -2.967192e+00 -1.654970e-01 2.000000e-01  6.250000e-02  
-7.500000e-01  -1.750000e+00  -1.500000e+00  0  2285 0  7.627296e+00 3.071720e+00 9.458797e-01   8.732199e-01 -3.367945e+00 -3.013831e-01 2.000000e-01  6.250000e-02  
-5.000000e-01  -2.000000e+00  -1.500000e+00  0  2278 0  3.432350e+00 4.987130e-01 2.739278e+00   -3.150539e-01 -1.632326e+00 -3.036351e-01 2.000000e-01  6.250000e-02  
-5.000000e-01  -1.750000e+00  -1.500000e+00  0  2286 0  -5.747309e+00 5.225179e+00 -5.276872e+00   -1.450211e-01 -7.021290e-01 7.530250e-01 2.000000e-01  6.250000e-02  
-2.500000e-01  -2.000000e+00  -1.500000e+00  0  2279 0  8.486290e+00 -6.761222e-01 -1.307203e+00   -8.533876e-02 4.845390e-01 -5.494572e-02 2.000000e-01  6.250000e-02  