VARIABLES="X", "Y", "Z", "Maximum Refinment Level", "Temp_ID", "Thread","Ex (corner node)","Ey (corner node)","Ez (corner node)","Bx (center node)","By (center node)","Bz (center node)", "Local Time Step" , "log10(Local Particle Weight)" 
ZONE N=4913, E=4096, DATAPACKING=POINT, ZONETYPE=FEBRICK
-2.000000e+00  -2.000000e+00  -2.000000e+00  0  1064 0  1.267729e-04 -9.075337e-05 8.545496e-05   -1.731053e-08 9.982256e-08 -2.443884e-06 2.000000e-01  6.250000e-02  
-1.750000e+00  -2.000000e+00  -2.000000e+00  0  1065 0  5.354320e-02 -7.090748e-01 -4.786192e-05   2.739801e-07 -6.925311e-06 4.755879e-01 2.000000e-01  6.250000e-02  
-1.750000e+00  -1.750000e+00  -2.000000e+00  0  1076 0  -3.535201e+00 -3.535171e+00 4.976234e-05   2.689337e-06 -2.549110e-06 -2.534748e-05 2.000000e-01  6.250000e-02  
-2.000000e+00  -1.750000e+00  -2.000000e+00  0  1075 0  -7.091010e-01 5.318485e-02 -4.860096e-05   6.878301e-06 -2.041756e-07 -4.756393e-01 2.000000e-01  6.250000e-02  
-2.000000e+00  -2.000000e+00  -1.750000e+00  0  1185 0  -7.777480e-05 7.178923e-06 4.139200e+00   1.524498e-05 3.934172e-05 -9.066021e-07 2.000000e-01  6.250000e-02  
-1.750000e+00  -2.000000e+00  -1.750000e+00  0  1186 0  -5.328612e+00 -3.471840e+00 -2.654366e-01   -4.450740e-01 9.062433e-02 -4.793260e-02 2.000000e-01  6.250000e-02  
-1.750000e+00  -1.750000e+00  -1.750000e+00  0  1197 0  -5.398306e+00 -5.398247e+00 -4.876140e+00   -4.183591e-01 4.183878e-01 -1.841256e-05 2.000000e-01  6.250000e-02  
-2.000000e+00  -1.750000e+00  -1.750000e+00  0  1196 0  -3.471823e+00 -5.328614e+00 -2.654899e-01   -9.057906e-02 4.451180e-01 4.789962e-02 2.000000e-01  6.250000e-02  
-1.500000e+00  -2.000000e+00  -2.000000e+00  0  1066 0  9.498068e+00 1.021855e+00 2.372643e-05   2.288930e-06 -2.988996e-06 2.529632e-01 2.000000e-01  6.250000e-02  
-1.500000e+00  -1.750000e+00  -2.000000e+00  0  1077 0  4.819599e+00 2.345697e+00 -3.580542e-05   -8.351237e-06 3.070261e-06 -8.552429e-01 2.000000e-01  6.250000e-02  
-1.500000e+00  -2.000000e+00  -1.750000e+00  0  1187 0  4.612074e+00 2.800038e-01 3.264942e+00   -3.291584e-01 1.810832e+00 -1.071087e-01 2.000000e-01  6.250000e-02  
-1.500000e+00  -1.750000e+00  -1.750000e+00  0  1198 0  4.488082e+00 3.298251e+00 2.345946e+00   -2.718785e-01 2.127209e+00 -8.781950e-01 2.000000e-01  6.250000e-02  
-1.250000e+00  -2.000000e+00  -2.000000e+00  0  2099 0  9.399494e+00 2.031408e+00 -1.872685e-05   -1.010934e-06 6.678878e-06 3.173544e-01 2.000000e-01  6.250000e-02  
-1.250000e+00  -1.750000e+00  -2.000000e+00  0  2107 0  -4.924124e+00 -3.287130e+00 1.792943e-05   -9.024492e-06 1.905011e-06 -5.306308e-02 2.000000e-01  6.250000e-02  
-1.250000e+00  -2.000000e+00  -1.750000e+00  0  2187 0  -3.446465e+00 -7.991990e-03 -2.172490e+00   -4.895480e-01 4.070184e-01 2.196794e-01 2.000000e-01  6.250000e-02  
-1.250000e+00  -1.750000e+00  -1.750000e+00  0  2195 0  -1.031945e+01 4.639606e+00 3.769964e+00   2.614579e-02 6.672837e-01 -2.866380e-01 2.000000e-01  6.250000e-02  
-1.000000e+00  -2.000000e+00  -2.000000e+00  0  2100 0  7.181440e+00 3.076162e-01 -4.753113e-05   -1.023923e-06 -1.921429e-06 1.312690e-01 2.000000e-01  6.250000e-02  
-1.000000e+00  -1.750000e+00  -2.000000e+00  0  2108 0  -9.402598e-01 6.476535e+00 1.951605e-05   -1.337381e-06 2.108763e-06 -2.885544e-01 2.000000e-01  6.250000e-02  
-1.000000e+00  -2.000000e+00  -1.750000e+00  0  2188 0  -4.128879e+00 -1.127158e+00 4.356680e+00   -3.349636e-01 -3.790364e-02 1.217663e-02 2.000000e-01  6.250000e-02  
-1.000000e+00  -1.750000e+00  -1.750000e+00  0  2196 0  -3.766210e-01 3.060415e+00 2.441335e+00   4.157899e-01 8.828320e-02 -7.688998e-01 2.000000e-01  6.250000e-02  
-7.500000e-01  -2.000000e+00  -2.000000e+00  0  2101 0  -7.802637e+00 2.038217e+00 3.791570e-05   1.898335e-06 3.781344e-06 -2.250830e-02 2.000000e-01  6.250000e-02  
-7.500000e-01  -1.750000e+00  -2.000000e+00  0  2109 0  6.744722e+00 1.075078e+01 2.683287e-05   -2.281205e-06 8.503334e-06 -1.343107e-01 2.000000e-01  6.250000e-02  
-7.500000e-01  -2.000000e+00  -1.750000e+00  0  2189 0  7.750966e+00 -1.219387e+00 9.708188e+00   1.060233e-01 1.183577e-01 -2.735113e-01 2.000000e-01  6.250000e-02  
-7.500000e-01  -1.750000e+00  -1.750000e+00  0  2197 0  -7.606139e+00 -2.203650e+00 -2.951426e+00   6.426825e-01 4.034010e-01 -3.629903e-01 2.000000e-01  6.250000e-02  
-5.000000e-01  -2.000000e+00  -2.000000e+00  0  2102 0  -2.765020e-01 -6.317476e+00 7.678995e-06   -2.298816e-07 6.808202e-06 4.876322e-01 2.000000e-01  6.250000e-02  
-5.000000e-01  -1.750000e+00  -2.000000e+00  0  2110 0  2.104862e+00 -1.223025e+00 -2.463812e-05   -4.281935e-06 1.523055e-05 1.261602e+00 2.000000e-01  6.250000e-02  
-5.000000e-01  -2.000000e+00  -1.750000e+00  0  2190 0  -1.193048e+00 1.884486e+00 3.979960e+00   4.157794e-01 -7.529358e-01 2.315732e-01 2.000000e-01  6.250000e-02  
-5.000000e-01  -1.750000e+00  -1.750000e+00  0  2198 0  2.111165e+00 -2.324266e+00 -3.907976e+00   5.509398e-01 -1.112159e-01 8.525576e-01 2.000000e-01  6.250000e-02  
-2.500000e-01  -2.000000e+00  -2.000000e+00  0  2103 0  8.145058e+00 1.235723e+00 -8.975084e-06   -1.321217e-06 4.149601e-06 -2.308891e-01 2.000000e-01  6.250000e-02  
-2.500000e-01  -1.750000e+00  -2.000000e+00  0  2111 0  -4.561594e+00 2.109441e+00 -4.143565e-06   -1.601214e-06 6.099792e-06 -1.936175e-02 2.000000e-01  6.250000e-02  
-2.500000e-01  -2.000000e+00  -1.750000e+00  0  2191 0  -3.573940e+00 1.277756e+00 8.129628e-01   2.653995e-01 1.624881e-01 2.116366e-03 2.000000e-01  6.250000e-02  
-2.500000e-01  -1.750000e+00  -1.750000e+00  0  2199 0  2.092967e+00 -4.761485e+00 -6.462678e+00   3.148444e-01 -6.654037e-01 9.853712e-01 2.000000e-01  6.250000e-02  
0.000000e+00  -2.000000e+00  -2.000000e+00  0  2104 0  -1.587123e-04 1.108747e-04 1.025592e-06   6.969774e-09 -5.015682e-09 -6.646383e-01 2.000000e-01  6.250000e-02  
0.000000e+00  -1.750000e+00  -2.000000e+00  0  2112 0  9.080530e-01 -4.245122e+00 -1.841518e-05   1.406351e-06 -1.884756e-06 -6.280773e-01 2.000000e-01  6.250000e-02  
0.000000e+00  -2.000000e+00  -1.750000e+00  0  2192 0  1.896134e-05 4.096212e-06 -4.960278e+00   2.292729e-05 -1.302764e-05 -4.725855e-01 2.000000e-01  6.250000e-02  
0.000000e+00  -1.750000e+00  -1.750000e+00  0  2200 0  -1.860177e+00 4.366543e+00 4.950570e+00   -6.214565e-02 -2.369166e-01 -3.507110e-01 2.000000e-01  6.250000e-02  
-1.750000e+00  -1.500000e+00  -2.000000e+00  0  1087 0  2.345714e+00 4.819628e+00 -3.631382e-05   -3.076753e-06 8.455708e-06 8.552129e-01 2.000000e-01  6.250000e-02  
-2.000000e+00  -1.500000e+00  -2.000000e+00  0  1086 0  1.021914e+00 9.498182e+00 2.380089e-05   2.817256e-06 -2.272757e-06 -2.530141e-01 2.000000e-01  6.250000e-02  
-1.750000e+00  -1.500000e+00  -1.750000e+00  0  1208 0  3.298257e+00 4.488123e+00 2.345954e+00   -2.127205e+00 2.718923e-01 8.781733e-01 2.000000e-01  6.250000e-02  
-2.000000e+00  -1.500000e+00  -1.750000e+00  0  1207 0  2.800387e-01 4.612139e+00 3.264912e+00   -1.810814e+00 3.291727e-01 1.070923e-01 2.000000e-01  6.250000e-02  
-1.500000e+00  -1.500000e+00  -2.000000e+00  0  1088 0  -6.674451e+00 -6.674421e+00 -6.282159e-05   -1.602654e-05 1.610490e-05 -2.687143e-06 2.000000e-01  6.250000e-02  
-1.500000e+00  -1.500000e+00  -1.750000e+00  0  1209 0  -4.015375e+00 -4.015383e+00 2.018366e-01   -5.666193e-01 5.666234e-01 -2.939161e-06 2.000000e-01  6.250000e-02  
-1.250000e+00  -1.500000e+00  -2.000000e+00  0  2115 0  -1.261425e+00 2.168014e+00 -6.563522e-06   -6.681667e-07 3.921449e-06 -5.116368e-01 2.000000e-01  6.250000e-02  
-1.250000e+00  -1.500000e+00  -1.750000e+00  0  2203 0  3.471164e+00 -3.805178e+00 2.466127e+00   1.171225e+00 5.960383e-01 -6.591773e-01 2.000000e-01  6.250000e-02  
-1.000000e+00  -1.500000e+00  -2.000000e+00  0  2116 0  4.476463e+00 1.988366e+00 -4.920544e-06   9.226646e-06 3.819644e-06 7.651546e-01 2.000000e-01  6.250000e-02  
-1.000000e+00  -1.500000e+00  -1.750000e+00  0  2204 0  -2.314304e+00 -6.585759e+00 -8.250754e+00   5.214643e-01 5.087229e-01 1.537517e+00 2.000000e-01  6.250000e-02  
-7.500000e-01  -1.500000e+00  -2.000000e+00  0  2117 0  4.580364e+00 6.696502e+00 -1.424313e-05   3.071420e-06 5.549843e-06 2.544821e+00 2.000000e-01  6.250000e-02  
-7.500000e-01  -1.500000e+00  -1.750000e+00  0  2205 0  6.604850e+00 1.916163e+00 4.162452e+00   -8.699603e-01 9.200773e-01 2.708909e+00 2.000000e-01  6.250000e-02  
-5.000000e-01  -1.500000e+00  -2.000000e+00  0  2118 0  5.978316e+00 1.555204e+00 -3.533944e-05   -2.120106e-06 1.145128e-05 1.171779e+00 2.000000e-01  6.250000e-02  
-5.000000e-01  -1.500000e+00  -1.750000e+00  0  2206 0  -1.770261e+00 -6.347503e+00 5.997444e+00   -1.630146e-01 -2.765449e-01 6.788787e-01 2.000000e-01  6.250000e-02  
-2.500000e-01  -1.500000e+00  -2.000000e+00  0  2119 0  8.378345e+00 -1.614785e+00 -6.792467e-06   -2.695110e-07 2.750131e-06 1.382285e-02 2.000000e-01  6.250000e-02  
-2.500000e-01  -1.500000e+00  -1.750000e+00  0  2207 0  3.808465e+00 -4.880848e+00 5.285898e+00   2.259813e-01 -8.424549e-01 1.005164e-01 2.000000e-01  6.250000e-02  
0.000000e+00  -1.500000e+00  -2.000000e+00  0  2120 0  8.686838e-01 8.142584e-02 3.140485e-06   8.429034e-07 -2.381377e-06 -3.965124e-01 2.000000e-01  6.250000e-02  
0.000000e+00  -1.500000e+00  -1.750000e+00  0  2208 0  -1.935116e+00 -1.983420e-01 3.562982e+00   -7.643504e-01 -1.149601e-01 -3.428890e-01 2.000000e-01  6.250000e-02  
-1.750000e+00  -1.250000e+00  -2.000000e+00  0  3012 0  -3.287161e+00 -4.924078e+00 1.788588e-05   -1.953467e-06 8.985389e-06 5.305024e-02 2.000000e-01  6.250000e-02  
-2.000000e+00  -1.250000e+00  -2.000000e+00  0  3011 0  2.031245e+00 9.399360e+00 -1.916722e-05   -6.756734e-06 1.008495e-06 -3.173501e-01 2.000000e-01  6.250000e-02  
-1.750000e+00  -1.250000e+00  -1.750000e+00  0  3100 0  4.639602e+00 -1.031950e+01 3.769939e+00   -6.672810e-01 -2.614433e-02 2.866292e-01 2.000000e-01  6.250000e-02  
-2.000000e+00  -1.250000e+00  -1.750000e+00  0  3099 0  -7.994418e-03 -3.446431e+00 -2.172516e+00   -4.070044e-01 4.895452e-01 -2.196673e-01 2.000000e-01  6.250000e-02  
-1.500000e+00  -1.250000e+00  -2.000000e+00  0  3013 0  2.168013e+00 -1.261435e+00 -6.553935e-06   -3.930106e-06 6.884694e-07 5.116348e-01 2.000000e-01  6.250000e-02  
-1.500000e+00  -1.250000e+00  -1.750000e+00  0  3101 0  -3.805179e+00 3.471168e+00 2.466112e+00   -5.960356e-01 -1.171222e+00 6.591771e-01 2.000000e-01  6.250000e-02  
-1.250000e+00  -1.250000e+00  -2.000000e+00  0  3779 0  -1.427713e+00 -1.427707e+00 -1.175141e-05   2.158792e-06 -2.114573e-06 -1.910396e-06 2.000000e-01  6.250000e-02  
-1.250000e+00  -1.250000e+00  -1.750000e+00  0  3843 0  -6.130487e+00 -6.130477e+00 -8.296621e+00   1.026004e-01 -1.026007e-01 7.908243e-07 2.000000e-01  6.250000e-02  
-1.000000e+00  -1.250000e+00  -2.000000e+00  0  3780 0  -3.561105e-01 1.404070e+00 6.483436e-06   5.754831e-06 2.437035e-06 3.810298e-02 2.000000e-01  6.250000e-02  
-1.000000e+00  -1.250000e+00  -1.750000e+00  0  3844 0  -3.911203e+00 -4.390316e+00 -8.556496e-01   4.292130e-01 7.673018e-01 1.764812e-01 2.000000e-01  6.250000e-02  
-7.500000e-01  -1.250000e+00  -2.000000e+00  0  3781 0  5.596040e-02 -7.875882e+00 8.071568e-06   3.952547e-06 2.527713e-06 1.645719e+00 2.000000e-01  6.250000e-02  
-7.500000e-01  -1.250000e+00  -1.750000e+00  0  3845 0  1.032952e+00 1.073423e+00 -4.793546e-02   2.919426e-01 2.086243e+00 6.748538e-01 2.000000e-01  6.250000e-02  
-5.000000e-01  -1.250000e+00  -2.000000e+00  0  3782 0  -6.938136e+00 5.385867e+00 -7.230321e-06   1.185275e-06 3.601666e-06 1.225480e+00 2.000000e-01  6.250000e-02  
-5.000000e-01  -1.250000e+00  -1.750000e+00  0  3846 0  3.220482e-01 4.247444e-01 -4.890584e+00   -3.341828e-01 7.562914e-01 2.453541e-01 2.000000e-01  6.250000e-02  
-2.500000e-01  -1.250000e+00  -2.000000e+00  0  3783 0  9.436452e-01 1.665123e+00 6.626101e-07   5.116804e-07 6.448466e-07 1.094861e+00 2.000000e-01  6.250000e-02  
-2.500000e-01  -1.250000e+00  -1.750000e+00  0  3847 0  -4.470670e-01 -1.534769e+00 -4.477628e+00   -8.575920e-01 4.456449e-01 2.946795e-01 2.000000e-01  6.250000e-02  
0.000000e+00  -1.250000e+00  -2.000000e+00  0  3784 0  6.849560e-03 -1.091292e+01 -2.718065e-06   -7.057753e-07 -5.649063e-07 2.835038e-01 2.000000e-01  6.250000e-02  
0.000000e+00  -1.250000e+00  -1.750000e+00  0  3848 0  1.130372e+00 -7.586602e+00 1.878442e+00   -4.774978e-01 7.176816e-02 7.877854e-02 2.000000e-01  6.250000e-02  
-1.750000e+00  -1.000000e+00  -2.000000e+00  0  3023 0  6.476485e+00 -9.401714e-01 1.935403e-05   -2.061534e-06 1.321995e-06 2.885435e-01 2.000000e-01  6.250000e-02  
-2.000000e+00  -1.000000e+00  -2.000000e+00  0  3022 0  3.077386e-01 7.181336e+00 -4.724791e-05   1.949130e-06 1.035118e-06 -1.312737e-01 2.000000e-01  6.250000e-02  
-1.750000e+00  -1.000000e+00  -1.750000e+00  0  3111 0  3.060425e+00 -3.766409e-01 2.441327e+00   -8.827889e-02 -4.157898e-01 7.688903e-01 2.000000e-01  6.250000e-02  
-2.000000e+00  -1.000000e+00  -1.750000e+00  0  3110 0  -1.127177e+00 -4.128887e+00 4.356690e+00   3.791664e-02 3.349716e-01 -1.218408e-02 2.000000e-01  6.250000e-02  
-1.500000e+00  -1.000000e+00  -2.000000e+00  0  3024 0  1.988398e+00 4.476410e+00 -5.059220e-06   -3.838996e-06 -9.220663e-06 -7.651528e-01 2.000000e-01  6.250000e-02  
-1.500000e+00  -1.000000e+00  -1.750000e+00  0  3112 0  -6.585735e+00 -2.314285e+00 -8.250740e+00   -5.087214e-01 -5.214631e-01 -1.537516e+00 2.000000e-01  6.250000e-02  
-1.250000e+00  -1.000000e+00  -2.000000e+00  0  3787 0  1.404055e+00 -3.560993e-01 6.584929e-06   -2.459554e-06 -5.721317e-06 -3.810656e-02 2.000000e-01  6.250000e-02  
-1.250000e+00  -1.000000e+00  -1.750000e+00  0  3851 0  -4.390314e+00 -3.911209e+00 -8.556468e-01   -7.673009e-01 -4.292163e-01 -1.764822e-01 2.000000e-01  6.250000e-02  
-1.000000e+00  -1.000000e+00  -2.000000e+00  0  3788 0  4.733500e+00 4.733501e+00 4.145825e-06   -7.993421e-07 8.143127e-07 -3.928507e-07 2.000000e-01  6.250000e-02  
-1.000000e+00  -1.000000e+00  -1.750000e+00  0  3852 0  -1.811015e+00 -1.811012e+00 -6.234759e-01   -2.501626e-01 2.501617e-01 -9.020016e-07 2.000000e-01  6.250000e-02  
-7.500000e-01  -1.000000e+00  -2.000000e+00  0  3789 0  7.095832e+00 -5.058064e-01 5.163365e-06   -8.073676e-07 2.794719e-06 -2.550375e+00 2.000000e-01  6.250000e-02  
-7.500000e-01  -1.000000e+00  -1.750000e+00  0  3853 0  2.683769e+00 -1.196216e+00 2.485319e+00   5.236929e-01 2.902663e+00 -2.653750e+00 2.000000e-01  6.250000e-02  
-5.000000e-01  -1.000000e+00  -2.000000e+00  0  3790 0  4.500563e+00 -3.267862e+00 5.861697e-07   -1.072645e-06 3.509308e-08 -1.382096e+00 2.000000e-01  6.250000e-02  
-5.000000e-01  -1.000000e+00  -1.750000e+00  0  3854 0  1.071175e+00 5.292646e+00 9.180595e-02   7.288421e-01 1.994221e+00 -9.610982e-01 2.000000e-01  6.250000e-02  
-2.500000e-01  -1.000000e+00  -2.000000e+00  0  3791 0  1.197296e+01 -3.024427e+00 -8.458728e-07   -4.225208e-07 8.446432e-08 1.135032e+00 2.000000e-01  6.250000e-02  
-2.500000e-01  -1.000000e+00  -1.750000e+00  0  3855 0  7.521918e+00 4.734246e+00 -3.865299e-01   1.612704e+00 8.211487e-01 5.204597e-01 2.000000e-01  6.250000e-02  
0.000000e+00  -1.000000e+00  -2.000000e+00  0  3792 0  3.119079e+00 1.296724e+01 1.671303e-07   -2.637168e-07 2.494825e-07 1.664846e-01 2.000000e-01  6.250000e-02  
0.000000e+00  -1.000000e+00  -1.750000e+00  0  3856 0  -7.870216e-02 -4.879195e+00 -4.195276e+00   2.525070e+00 9.958490e-02 9.018375e-02 2.000000e-01  6.250000e-02  
-1.750000e+00  -7.500000e-01  -2.000000e+00  0  3034 0  1.075080e+01 6.744732e+00 2.691544e-05   -8.522091e-06 2.305236e-06 1.343083e-01 2.000000e-01  6.250000e-02  
-2.000000e+00  -7.500000e-01  -2.000000e+00  0  3033 0  2.038263e+00 -7.802749e+00 3.776413e-05   -3.766364e-06 -1.897577e-06 2.248862e-02 2.000000e-01  6.250000e-02  
-1.750000e+00  -7.500000e-01  -1.750000e+00  0  3122 0  -2.203673e+00 -7.606118e+00 -2.951443e+00   -4.034017e-01 -6.426807e-01 3.629885e-01 2.000000e-01  6.250000e-02  
-2.000000e+00  -7.500000e-01  -1.750000e+00  0  3121 0  -1.219366e+00 7.751002e+00 9.708202e+00   -1.183596e-01 -1.060144e-01 2.734973e-01 2.000000e-01  6.250000e-02  
-1.500000e+00  -7.500000e-01  -2.000000e+00  0  3035 0  6.696486e+00 4.580372e+00 -1.432011e-05   -5.584701e-06 -3.057327e-06 -2.544815e+00 2.000000e-01  6.250000e-02  
-1.500000e+00  -7.500000e-01  -1.750000e+00  0  3123 0  1.916170e+00 6.604864e+00 4.162469e+00   -9.200754e-01 8.699612e-01 -2.708904e+00 2.000000e-01  6.250000e-02  
-1.250000e+00  -7.500000e-01  -2.000000e+00  0  3795 0  -7.875889e+00 5.598324e-02 8.125914e-06   -2.545015e-06 -3.953183e-06 -1.645721e+00 2.000000e-01  6.250000e-02  
-1.250000e+00  -7.500000e-01  -1.750000e+00  0  3859 0  1.073425e+00 1.032941e+00 -4.793435e-02   -2.086241e+00 -2.919446e-01 -6.748564e-01 2.000000e-01  6.250000e-02  
-1.000000e+00  -7.500000e-01  -2.000000e+00  0  3796 0  -5.058033e-01 7.095829e+00 5.093499e-06   -2.788874e-06 8.205275e-07 2.550377e+00 2.000000e-01  6.250000e-02  
-1.000000e+00  -7.500000e-01  -1.750000e+00  0  3860 0  -1.196224e+00 2.683773e+00 2.485316e+00   -2.902662e+00 -5.236927e-01 2.653751e+00 2.000000e-01  6.250000e-02  
-7.500000e-01  -7.500000e-01  -2.000000e+00  0  3797 0  -2.403103e+00 -2.403097e+00 -2.525781e-06   -9.920241e-07 1.004417e-06 9.275510e-09 2.000000e-01  6.250000e-02  
-7.500000e-01  -7.500000e-01  -1.750000e+00  0  3861 0  -6.009252e+00 -6.009253e+00 -1.543234e+00   -1.754886e+00 1.754887e+00 6.968312e-07 2.000000e-01  6.250000e-02  
-5.000000e-01  -7.500000e-01  -2.000000e+00  0  3798 0  4.174722e+00 -2.568187e-01 1.013639e-08   6.866932e-08 -1.393149e-06 -6.419659e-01 2.000000e-01  6.250000e-02  
-5.000000e-01  -7.500000e-01  -1.750000e+00  0  3862 0  2.700463e-01 -4.285533e+00 -9.620097e-01   -6.428962e-01 1.513935e+00 -6.486637e-01 2.000000e-01  6.250000e-02  
-2.500000e-01  -7.500000e-01  -2.000000e+00  0  3799 0  -1.019883e+01 3.336237e+00 -7.653340e-07   -6.035293e-08 -1.024979e-06 1.102619e-01 2.000000e-01  6.250000e-02  
-2.500000e-01  -7.500000e-01  -1.750000e+00  0  3863 0  2.563571e+00 3.177834e+00 -9.477036e-01   1.026080e+00 -1.426552e-01 -7.982107e-01 2.000000e-01  6.250000e-02  
0.000000e+00  -7.500000e-01  -2.000000e+00  0  3800 0  8.608652e-01 -1.256010e+00 1.173106e-06   -1.448410e-07 -1.747326e-07 -3.242814e-01 2.000000e-01  6.250000e-02  
0.000000e+00  -7.500000e-01  -1.750000e+00  0  3864 0  8.161062e-01 -4.430489e-02 -4.709360e+00   2.544723e+00 1.097339e-01 -2.022892e-01 2.000000e-01  6.250000e-02  
-1.750000e+00  -5.000000e-01  -2.000000e+00  0  3045 0  -1.223055e+00 2.104833e+00 -2.465669e-05   -1.523101e-05 4.278174e-06 -1.261597e+00 2.000000e-01  6.250000e-02  
-2.000000e+00  -5.000000e-01  -2.000000e+00  0  3044 0  -6.317520e+00 -2.765029e-01 7.831913e-06   -6.804003e-06 2.208099e-07 -4.876307e-01 2.000000e-01  6.250000e-02  
-1.750000e+00  -5.000000e-01  -1.750000e+00  0  3133 0  -2.324216e+00 2.111211e+00 -3.907983e+00   1.112127e-01 -5.509389e-01 -8.525504e-01 2.000000e-01  6.250000e-02  
-2.000000e+00  -5.000000e-01  -1.750000e+00  0  3132 0  1.884431e+00 -1.193040e+00 3.979970e+00   7.529380e-01 -4.157733e-01 -2.315730e-01 2.000000e-01  6.250000e-02  
-1.500000e+00  -5.000000e-01  -2.000000e+00  0  3046 0  1.555209e+00 5.978350e+00 -3.531422e-05   -1.146329e-05 2.119698e-06 -1.171772e+00 2.000000e-01  6.250000e-02  
-1.500000e+00  -5.000000e-01  -1.750000e+00  0  3134 0  -6.347506e+00 -1.770286e+00 5.997426e+00   2.765382e-01 1.630134e-01 -6.788701e-01 2.000000e-01  6.250000e-02  
-1.250000e+00  -5.000000e-01  -2.000000e+00  0  3803 0  5.385871e+00 -6.938145e+00 -7.274584e-06   -3.618732e-06 -1.182041e-06 -1.225484e+00 2.000000e-01  6.250000e-02  
-1.250000e+00  -5.000000e-01  -1.750000e+00  0  3867 0  4.247541e-01 3.220492e-01 -4.890573e+00   -7.562953e-01 3.341793e-01 -2.453574e-01 2.000000e-01  6.250000e-02  
-1.000000e+00  -5.000000e-01  -2.000000e+00  0  3804 0  -3.267850e+00 4.500562e+00 5.551175e-07   -3.977064e-08 1.071318e-06 1.382094e+00 2.000000e-01  6.250000e-02  
-1.000000e+00  -5.000000e-01  -1.750000e+00  0  3868 0  5.292647e+00 1.071181e+00 9.180980e-02   -1.994222e+00 -7.288430e-01 9.610981e-01 2.000000e-01  6.250000e-02  
-7.500000e-01  -5.000000e-01  -2.000000e+00  0  3805 0  -2.568184e-01 4.174726e+00 1.074323e-09   1.394250e-06 -6.215733e-08 6.419652e-01 2.000000e-01  6.250000e-02  
-7.500000e-01  -5.000000e-01  -1.750000e+00  0  3869 0  -4.285529e+00 2.700447e-01 -9.620118e-01   -1.513936e+00 6.428959e-01 6.486632e-01 2.000000e-01  6.250000e-02  
-5.000000e-01  -5.000000e-01  -2.000000e+00  0  3806 0  -8.937783e+00 -8.937787e+00 -7.855668e-07   5.881312e-07 -5.906122e-07 -7.504959e-08 2.000000e-01  6.250000e-02  
-5.000000e-01  -5.000000e-01  -1.750000e+00  0  3870 0  -2.035251e+00 -2.035254e+00 7.712776e+00   -1.450290e+00 1.450290e+00 -1.780211e-07 2.000000e-01  6.250000e-02  
-2.500000e-01  -5.000000e-01  -2.000000e+00  0  3807 0  1.417967e+00 1.164169e+00 4.843368e-07   -1.159896e-07 -3.834040e-07 4.680986e-01 2.000000e-01  6.250000e-02  
-2.500000e-01  -5.000000e-01  -1.750000e+00  0  3871 0  5.849528e+00 2.136990e+00 1.443876e+00   -7.227396e-01 -7.077485e-01 -3.845194e-01 2.000000e-01  6.250000e-02  
0.000000e+00  -5.000000e-01  -2.000000e+00  0  3808 0  -1.478455e+00 -7.064990e+00 -1.051121e-06   -4.091522e-07 -3.404822e-08 3.817003e-02 2.000000e-01  6.250000e-02  
0.000000e+00  -5.000000e-01  -1.750000e+00  0  3872 0  -8.253666e-02 -1.764453e+00 1.206114e+00   5.067168e-02 -3.438506e-02 9.442526e-02 2.000000e-01  6.250000e-02  
-1.750000e+00  -2.500000e-01  -2.000000e+00  0  3056 0  2.109485e+00 -4.561614e+00 -4.200925e-06   -6.056240e-06 1.612235e-06 1.939143e-02 2.000000e-01  6.250000e-02  
-2.000000e+00  -2.500000e-01  -2.000000e+00  0  3055 0  1.235712e+00 8.145056e+00 -8.919672e-06   -4.119455e-06 1.325887e-06 2.308974e-01 2.000000e-01  6.250000e-02  
-1.750000e+00  -2.500000e-01  -1.750000e+00  0  3144 0  -4.761504e+00 2.093060e+00 -6.462697e+00   6.653917e-01 -3.148337e-01 -9.853474e-01 2.000000e-01  6.250000e-02  
-2.000000e+00  -2.500000e-01  -1.750000e+00  0  3143 0  1.277756e+00 -3.573939e+00 8.129876e-01   -1.624919e-01 -2.653816e-01 -2.111854e-03 2.000000e-01  6.250000e-02  
-1.500000e+00  -2.500000e-01  -2.000000e+00  0  3057 0  -1.614771e+00 8.378349e+00 -6.757039e-06   -2.736943e-06 2.739913e-07 -1.379563e-02 2.000000e-01  6.250000e-02  
-1.500000e+00  -2.500000e-01  -1.750000e+00  0  3145 0  -4.880851e+00 3.808462e+00 5.285902e+00   8.424430e-01 -2.259816e-01 -1.004957e-01 2.000000e-01  6.250000e-02  
-1.250000e+00  -2.500000e-01  -2.000000e+00  0  3811 0  1.665106e+00 9.436543e-01 6.016481e-07   -6.283109e-07 -5.094742e-07 -1.094863e+00 2.000000e-01  6.250000e-02  
-1.250000e+00  -2.500000e-01  -1.750000e+00  0  3875 0  -1.534778e+00 -4.470797e-01 -4.477627e+00   -4.456483e-01 8.575835e-01 -2.946851e-01 2.000000e-01  6.250000e-02  
-1.000000e+00  -2.500000e-01  -2.000000e+00  0  3812 0  -3.024424e+00 1.197296e+01 -8.575580e-07   -7.205182e-08 4.100560e-07 -1.135036e+00 2.000000e-01  6.250000e-02  
-1.000000e+00  -2.500000e-01  -1.750000e+00  0  3876 0  4.734244e+00 7.521925e+00 -3.865407e-01   -8.211483e-01 -1.612708e+00 -5.204609e-01 2.000000e-01  6.250000e-02  
-7.500000e-01  -2.500000e-01  -2.000000e+00  0  3813 0  3.336240e+00 -1.019883e+01 -7.744311e-07   1.022329e-06 5.881848e-08 -1.102622e-01 2.000000e-01  6.250000e-02  
-7.500000e-01  -2.500000e-01  -1.750000e+00  0  3877 0  3.177842e+00 2.563553e+00 -9.477104e-01   1.426547e-01 -1.026080e+00 7.982100e-01 2.000000e-01  6.250000e-02  
-5.000000e-01  -2.500000e-01  -2.000000e+00  0  3814 0  1.164167e+00 1.417976e+00 4.832328e-07   3.819891e-07 1.126880e-07 -4.680989e-01 2.000000e-01  6.250000e-02  
-5.000000e-01  -2.500000e-01  -1.750000e+00  0  3878 0  2.136987e+00 5.849530e+00 1.443875e+00   7.077482e-01 7.227397e-01 3.845189e-01 2.000000e-01  6.250000e-02  
-2.500000e-01  -2.500000e-01  -2.000000e+00  0  3815 0  -1.466042e+00 -1.466042e+00 -1.885656e-06   -1.825381e-07 1.796717e-07 8.942020e-07 2.000000e-01  6.250000e-02  
-2.500000e-01  -2.500000e-01  -1.750000e+00  0  3879 0  3.746177e+00 3.746177e+00 4.931047e+00   2.340574e-01 -2.340574e-01 6.266268e-07 2.000000e-01  6.250000e-02  
0.000000e+00  -2.500000e-01  -2.000000e+00  0  3816 0  -4.366077e-01 -2.582121e+00 2.366275e-07   -4.940051e-09 1.341522e-07 1.446804e-01 2.000000e-01  6.250000e-02  
0.000000e+00  -2.500000e-01  -1.750000e+00  0  3880 0  3.425623e-01 -1.213940e-01 -5.210539e+00   -5.559792e-03 -1.804748e-01 7.964722e-02 2.000000e-01  6.250000e-02  
-1.750000e+00  0.000000e+00  -2.000000e+00  0  3067 0  -4.244883e+00 9.080414e-01 -1.834903e-05   1.883898e-06 -1.391651e-06 6.280927e-01 2.000000e-01  6.250000e-02  
-2.000000e+00  0.000000e+00  -2.000000e+00  0  3066 0  -1.030410e-05 2.428507e-05 1.006362e-06   -6.104363e-09 1.621592e-08 6.646391e-01 2.000000e-01  6.250000e-02  
-1.750000e+00  0.000000e+00  -1.750000e+00  0  3155 0  4.366654e+00 -1.860110e+00 4.950642e+00   2.369087e-01 6.216547e-02 3.507207e-01 2.000000e-01  6.250000e-02  
-2.000000e+00  0.000000e+00  -1.750000e+00  0  3154 0  -1.835791e-05 -9.798697e-07 -4.960273e+00   -7.011453e-07 3.961543e-06 4.725857e-01 2.000000e-01  6.250000e-02  
-1.500000e+00  0.000000e+00  -2.000000e+00  0  3068 0  8.137838e-02 8.686861e-01 3.167951e-06   2.409703e-06 -8.432836e-07 3.965290e-01 2.000000e-01  6.250000e-02  
-1.500000e+00  0.000000e+00  -1.750000e+00  0  3156 0  -1.983389e-01 -1.935075e+00 3.562957e+00   1.149644e-01 7.643553e-01 3.428970e-01 2.000000e-01  6.250000e-02  
-1.250000e+00  0.000000e+00  -2.000000e+00  0  3819 0  -1.091292e+01 6.846203e-03 -2.698436e-06   6.194509e-07 6.948062e-07 -2.835041e-01 2.000000e-01  6.250000e-02  
-1.250000e+00  0.000000e+00  -1.750000e+00  0  3883 0  -7.586605e+00 1.130331e+00 1.878443e+00   -7.175929e-02 4.774944e-01 -7.878365e-02 2.000000e-01  6.250000e-02  
-1.000000e+00  0.000000e+00  -2.000000e+00  0  3820 0  1.296724e+01 3.119079e+00 2.025051e-07   -2.143656e-07 2.509287e-07 -1.664866e-01 2.000000e-01  6.250000e-02  
-1.000000e+00  0.000000e+00  -1.750000e+00  0  3884 0  -4.879201e+00 -7.868451e-02 -4.195278e+00   -9.958230e-02 -2.525073e+00 -9.018342e-02 2.000000e-01  6.250000e-02  
-7.500000e-01  0.000000e+00  -2.000000e+00  0  3821 0  -1.256013e+00 8.608666e-01 1.155330e-06   1.789715e-07 1.406080e-07 3.242816e-01 2.000000e-01  6.250000e-02  
-7.500000e-01  0.000000e+00  -1.750000e+00  0  3885 0  -4.430076e-02 8.160991e-01 -4.709361e+00   -1.097354e-01 -2.544724e+00 2.022888e-01 2.000000e-01  6.250000e-02  
-5.000000e-01  0.000000e+00  -2.000000e+00  0  3822 0  -7.064995e+00 -1.478456e+00 -1.055281e-06   3.462316e-08 4.041234e-07 -3.817156e-02 2.000000e-01  6.250000e-02  
-5.000000e-01  0.000000e+00  -1.750000e+00  0  3886 0  -1.764451e+00 -8.253272e-02 1.206113e+00   3.438354e-02 -5.067121e-02 -9.442658e-02 2.000000e-01  6.250000e-02  
-2.500000e-01  0.000000e+00  -2.000000e+00  0  3823 0  -2.582121e+00 -4.366061e-01 2.324763e-07   -1.334720e-07 2.392514e-09 -1.446799e-01 2.000000e-01  6.250000e-02  
-2.500000e-01  0.000000e+00  -1.750000e+00  0  3887 0  -1.213935e-01 3.425619e-01 -5.210538e+00   1.804735e-01 5.559508e-03 -7.964682e-02 2.000000e-01  6.250000e-02  
0.000000e+00  0.000000e+00  -2.000000e+00  0  3824 0  1.854491e-06 -3.080456e-07 -2.333479e-06   1.974023e-09 -1.304664e-09 9.417908e-09 2.000000e-01  6.250000e-02  
0.000000e+00  0.000000e+00  -1.750000e+00  0  3888 0  -4.317316e-07 1.702494e-07 -1.078319e+00   -6.329582e-08 -4.787258e-07 1.874700e-09 2.000000e-01  6.250000e-02  
-2.000000e+00  -2.000000e+00  -1.500000e+00  0  1306 0  1.439797e-05 -1.900754e-05 8.165291e+00   8.965245e-06 2.894412e-05 5.141093e-07 2.000000e-01  6.250000e-02  
-1.750000e+00  -2.000000e+00  -1.500000e+00  0  1307 0  2.790915e+00 8.285637e-01 3.711343e+00   5.008729e-02 -1.573877e+00 -6.336579e-01 2.000000e-01  6.250000e-02  
-1.750000e+00  -1.750000e+00  -1.500000e+00  0  1318 0  -1.392263e+00 -1.392231e+00 1.180436e+00   1.293524e+00 -1.293505e+00 -9.887720e-06 2.000000e-01  6.250000e-02  
-2.000000e+00  -1.750000e+00  -1.500000e+00  0  1317 0  8.285660e-01 2.790858e+00 3.711365e+00   1.573889e+00 -5.006594e-02 6.336518e-01 2.000000e-01  6.250000e-02  
-1.500000e+00  -2.000000e+00  -1.500000e+00  0  1308 0  -6.620574e+00 3.392619e+00 -8.028159e+00   -1.244774e-01 2.132796e-01 -3.705769e-01 2.000000e-01  6.250000e-02  
-1.500000e+00  -1.750000e+00  -1.500000e+00  0  1319 0  -4.984358e+00 -5.267289e-01 -2.853302e+00   1.175163e-01 7.761150e-01 -4.281807e-01 2.000000e-01  6.250000e-02  
-1.250000e+00  -2.000000e+00  -1.500000e+00  0  2275 0  -2.125244e+00 -3.642240e-01 2.900532e-01   -4.500670e-01 3.455700e-01 1.409145e-01 2.000000e-01  6.250000e-02  
-1.250000e+00  -1.750000e+00  -1.500000e+00  0  2283 0  3.545922e+00 -2.942799e-01 -1.928965e+00   -6.637578e-01 8.506915e-01 -1.069789e+00 2.000000e-01  6.250000e-02  
-1.000000e+00  -2.000000e+00  -1.500000e+00  0  2276 0  9.044173e+00 -3.271845e-02 3.523567e+00   -1.869172e-01 -1.262900e+00 -7.472517e-03 2.000000e-01  6.250000e-02  
-1.000000e+00  -1.750000e+00  -1.500000e+00  0  2284 0  -1.688797e+00 1.636309e+00 -1.087129e+00   1.415585e-01 -2.394396e+00 -1.260107e+00 2.000000e-01  6.250000e-02  
-7.500000e-01  -2.000000e+00  -1.500000e+00  0  2277 0  3.885301e+00 4.961308e-01 4.043146e+00   -1.241885e-01 -2.967196e+00 -1.654944e-01 2.000000e-01  6.250000e-02  
-7.500000e-01  -1.750000e+00  -1.500000e+00  0  2285 0  7.627307e+00 3.071687e+00 9.458497e-01   8.732124e-01 -3.367956e+00 -3.013870e-01 2.000000e-01  6.250000e-02  
-5.000000e-01  -2.000000e+00  -1.500000e+00  0  2278 0  3.432352e+00 4.987510e-01 2.739281e+00   -3.150567e-01 -1.632326e+00 -3.036261e-01 2.000000e-01  6.250000e-02  
-5.000000e-01  -1.750000e+00  -1.500000e+00  0  2286 0  -5.747295e+00 5.225168e+00 -5.276882e+00   -1.450234e-01 -7.021276e-01 7.530256e-01 2.000000e-01  6.250000e-02  
-2.500000e-01  -2.000000e+00  -1.500000e+00  0  2279 0  8.486302e+00 -6.761285e-01 -1.307195e+00   -8.534229e-02 4.845445e-01 -5.493912e-02 2.000000e-01  6.250000e-02  