VARIABLES="X", "Y", "Z", "Maximum Refinment Level", "Temp_ID", "Thread","Ex (corner node)","Ey (corner node)","Ez (corner node)","Bx (center node)","By (center node)","Bz (center node)", "Local Time Step" , "log10(Local Particle Weight)" 
ZONE N=4913, E=4096, DATAPACKING=POINT, ZONETYPE=FEBRICK
-2.000000e+00  -2.000000e+00  -2.000000e+00  0  316 0  -4.937792e-05 -2.375046e-06 -5.320852e-05   -1.121964e-08 -5.250017e-08 6.852248e-06 2.000000e-01  6.250000e-02  
-1.750000e+00  -2.000000e+00  -2.000000e+00  0  317 0  5.337478e-02 -7.090817e-01 -4.908772e-06   4.216374e-07 2.916840e-07 4.756409e-01 2.000000e-01  6.250000e-02  
-1.750000e+00  -1.750000e+00  -2.000000e+00  0  328 0  -3.535068e+00 -3.535140e+00 1.335059e-06   -3.771843e-07 2.994306e-07 7.948768e-06 2.000000e-01  6.250000e-02  
-2.000000e+00  -1.750000e+00  -2.000000e+00  0  327 0  -7.090637e-01 5.348846e-02 -4.378329e-06   -2.918032e-07 -4.523385e-07 -4.756208e-01 2.000000e-01  6.250000e-02  
-2.000000e+00  -2.000000e+00  -1.750000e+00  0  459 0  -7.551239e-05 -8.989120e-05 4.138970e+00   -2.898659e-05 1.332899e-05 2.566158e-06 2.000000e-01  6.250000e-02  
-1.750000e+00  -2.000000e+00  -1.750000e+00  0  460 0  -5.328520e+00 -3.471815e+00 -2.655115e-01   -4.451105e-01 9.059900e-02 -4.789830e-02 2.000000e-01  6.250000e-02  
-1.750000e+00  -1.750000e+00  -1.750000e+00  0  471 0  -5.398272e+00 -5.398302e+00 -4.876128e+00   -4.184049e-01 4.183983e-01 2.157985e-06 2.000000e-01  6.250000e-02  
-2.000000e+00  -1.750000e+00  -1.750000e+00  0  470 0  -3.471817e+00 -5.328515e+00 -2.654480e-01   -9.061778e-02 4.451002e-01 4.791085e-02 2.000000e-01  6.250000e-02  
-1.500000e+00  -2.000000e+00  -2.000000e+00  0  318 0  9.498148e+00 1.021875e+00 1.117764e-06   7.232723e-07 -2.469446e-07 2.530357e-01 2.000000e-01  6.250000e-02  
-1.500000e+00  -1.750000e+00  -2.000000e+00  0  329 0  4.819700e+00 2.345805e+00 -8.016547e-06   -1.216593e-06 2.135354e-07 -8.551828e-01 2.000000e-01  6.250000e-02  
-1.500000e+00  -2.000000e+00  -1.750000e+00  0  461 0  4.612119e+00 2.799872e-01 3.264966e+00   -3.291665e-01 1.810814e+00 -1.070861e-01 2.000000e-01  6.250000e-02  
-1.500000e+00  -1.750000e+00  -1.750000e+00  0  472 0  4.488138e+00 3.298334e+00 2.345967e+00   -2.719107e-01 2.127218e+00 -8.781580e-01 2.000000e-01  6.250000e-02  
-1.250000e+00  -2.000000e+00  -2.000000e+00  0  2083 0  9.399182e+00 2.031124e+00 -3.722978e-06   1.642389e-08 5.911368e-07 3.173446e-01 2.000000e-01  6.250000e-02  
-1.250000e+00  -1.750000e+00  -2.000000e+00  0  2091 0  -4.924016e+00 -3.287173e+00 3.020084e-06   -1.170057e-06 -2.986183e-07 -5.301616e-02 2.000000e-01  6.250000e-02  
-1.250000e+00  -2.000000e+00  -1.750000e+00  0  2187 0  -3.446437e+00 -7.957666e-03 -2.172522e+00   -4.895519e-01 4.069650e-01 2.196572e-01 2.000000e-01  6.250000e-02  
-1.250000e+00  -1.750000e+00  -1.750000e+00  0  2195 0  -1.031946e+01 4.639549e+00 3.769888e+00   2.613937e-02 6.672741e-01 -2.866089e-01 2.000000e-01  6.250000e-02  
-1.000000e+00  -2.000000e+00  -2.000000e+00  0  2084 0  7.181454e+00 3.080062e-01 -3.235778e-06   -1.108286e-07 -2.732831e-07 1.312436e-01 2.000000e-01  6.250000e-02  
-1.000000e+00  -1.750000e+00  -2.000000e+00  0  2092 0  -9.402319e-01 6.476503e+00 1.823672e-06   -1.653358e-07 5.297245e-07 -2.885300e-01 2.000000e-01  6.250000e-02  
-1.000000e+00  -2.000000e+00  -1.750000e+00  0  2188 0  -4.128710e+00 -1.127175e+00 4.356703e+00   -3.349933e-01 -3.794715e-02 1.215766e-02 2.000000e-01  6.250000e-02  
-1.000000e+00  -1.750000e+00  -1.750000e+00  0  2196 0  -3.767024e-01 3.060451e+00 2.441346e+00   4.157787e-01 8.826978e-02 -7.688887e-01 2.000000e-01  6.250000e-02  
-7.500000e-01  -2.000000e+00  -2.000000e+00  0  2085 0  -7.803058e+00 2.038213e+00 3.225652e-06   2.938058e-07 5.457154e-07 -2.248514e-02 2.000000e-01  6.250000e-02  
-7.500000e-01  -1.750000e+00  -2.000000e+00  0  2093 0  6.744602e+00 1.075086e+01 1.037301e-06   -2.981973e-07 1.081221e-06 -1.342831e-01 2.000000e-01  6.250000e-02  
-7.500000e-01  -2.000000e+00  -1.750000e+00  0  2189 0  7.750919e+00 -1.219427e+00 9.708226e+00   1.060069e-01 1.183527e-01 -2.735014e-01 2.000000e-01  6.250000e-02  
-7.500000e-01  -1.750000e+00  -1.750000e+00  0  2197 0  -7.605974e+00 -2.203686e+00 -2.951462e+00   6.426727e-01 4.033943e-01 -3.629766e-01 2.000000e-01  6.250000e-02  
-5.000000e-01  -2.000000e+00  -2.000000e+00  0  2086 0  -2.764545e-01 -6.317467e+00 -6.616052e-07   2.711758e-08 7.406350e-07 4.876314e-01 2.000000e-01  6.250000e-02  
-5.000000e-01  -1.750000e+00  -2.000000e+00  0  2094 0  2.104849e+00 -1.222944e+00 -1.031375e-06   -5.619120e-07 1.572794e-06 1.261622e+00 2.000000e-01  6.250000e-02  
-5.000000e-01  -2.000000e+00  -1.750000e+00  0  2190 0  -1.193051e+00 1.884341e+00 3.980043e+00   4.157818e-01 -7.529539e-01 2.315770e-01 2.000000e-01  6.250000e-02  
-5.000000e-01  -1.750000e+00  -1.750000e+00  0  2198 0  2.111291e+00 -2.324127e+00 -3.907978e+00   5.509429e-01 -1.112273e-01 8.525722e-01 2.000000e-01  6.250000e-02  
-2.500000e-01  -2.000000e+00  -2.000000e+00  0  2087 0  8.145054e+00 1.235653e+00 -1.274403e-06   -1.109471e-07 4.080534e-07 -2.308925e-01 2.000000e-01  6.250000e-02  
-2.500000e-01  -1.750000e+00  -2.000000e+00  0  2095 0  -4.561640e+00 2.109356e+00 -6.708231e-07   -2.597627e-07 6.042822e-07 -1.933209e-02 2.000000e-01  6.250000e-02  
-2.500000e-01  -2.000000e+00  -1.750000e+00  0  2191 0  -3.573963e+00 1.277729e+00 8.129100e-01   2.653946e-01 1.624448e-01 2.116519e-03 2.000000e-01  6.250000e-02  
-2.500000e-01  -1.750000e+00  -1.750000e+00  0  2199 0  2.092891e+00 -4.761477e+00 -6.462655e+00   3.148460e-01 -6.654351e-01 9.853996e-01 2.000000e-01  6.250000e-02  
0.000000e+00  -2.000000e+00  -2.000000e+00  0  2088 0  -1.417213e-04 1.050121e-04 1.635900e-07   -5.853895e-09 -2.550567e-09 -6.646250e-01 2.000000e-01  6.250000e-02  
0.000000e+00  -1.750000e+00  -2.000000e+00  0  2096 0  9.080364e-01 -4.245245e+00 -1.905280e-06   8.778433e-08 -1.455032e-07 -6.280720e-01 2.000000e-01  6.250000e-02  
0.000000e+00  -2.000000e+00  -1.750000e+00  0  2192 0  1.464785e-05 -1.064984e-05 -4.960450e+00   1.962130e-05 -1.297882e-05 -4.725789e-01 2.000000e-01  6.250000e-02  
0.000000e+00  -1.750000e+00  -1.750000e+00  0  2200 0  -1.860147e+00 4.366426e+00 4.950453e+00   -6.214674e-02 -2.369131e-01 -3.507115e-01 2.000000e-01  6.250000e-02  
-1.750000e+00  -1.500000e+00  -2.000000e+00  0  339 0  2.345756e+00 4.819672e+00 -7.562033e-06   -2.448906e-07 1.184355e-06 8.551937e-01 2.000000e-01  6.250000e-02  
-2.000000e+00  -1.500000e+00  -2.000000e+00  0  338 0  1.021869e+00 9.498118e+00 1.145397e-06   2.353822e-07 -7.310561e-07 -2.530125e-01 2.000000e-01  6.250000e-02  
-1.750000e+00  -1.500000e+00  -1.750000e+00  0  482 0  3.298278e+00 4.488064e+00 2.345939e+00   -2.127216e+00 2.719079e-01 8.781639e-01 2.000000e-01  6.250000e-02  
-2.000000e+00  -1.500000e+00  -1.750000e+00  0  481 0  2.799717e-01 4.612124e+00 3.264961e+00   -1.810821e+00 3.291635e-01 1.071004e-01 2.000000e-01  6.250000e-02  
-1.500000e+00  -1.500000e+00  -2.000000e+00  0  340 0  -6.674298e+00 -6.674334e+00 -7.580788e-06   -1.865063e-06 1.871205e-06 -1.197142e-05 2.000000e-01  6.250000e-02  
-1.500000e+00  -1.500000e+00  -1.750000e+00  0  483 0  -4.015385e+00 -4.015381e+00 2.017940e-01   -5.666345e-01 5.666375e-01 -5.975307e-06 2.000000e-01  6.250000e-02  
-1.250000e+00  -1.500000e+00  -2.000000e+00  0  2099 0  -1.261463e+00 2.167980e+00 -1.058123e-06   -1.997983e-08 1.736101e-07 -5.116324e-01 2.000000e-01  6.250000e-02  
-1.250000e+00  -1.500000e+00  -1.750000e+00  0  2203 0  3.471141e+00 -3.805220e+00 2.466099e+00   1.171215e+00 5.960515e-01 -6.591711e-01 2.000000e-01  6.250000e-02  
-1.000000e+00  -1.500000e+00  -2.000000e+00  0  2100 0  4.476469e+00 1.988402e+00 -6.355244e-07   7.661152e-07 8.138105e-07 7.651688e-01 2.000000e-01  6.250000e-02  
-1.000000e+00  -1.500000e+00  -1.750000e+00  0  2204 0  -2.314302e+00 -6.585693e+00 -8.250750e+00   5.214605e-01 5.087330e-01 1.537531e+00 2.000000e-01  6.250000e-02  
-7.500000e-01  -1.500000e+00  -2.000000e+00  0  2101 0  4.580372e+00 6.696458e+00 -9.173742e-07   -3.093042e-08 6.867388e-07 2.544839e+00 2.000000e-01  6.250000e-02  
-7.500000e-01  -1.500000e+00  -1.750000e+00  0  2205 0  6.604926e+00 1.916168e+00 4.162500e+00   -8.699631e-01 9.200767e-01 2.708914e+00 2.000000e-01  6.250000e-02  
-5.000000e-01  -1.500000e+00  -2.000000e+00  0  2102 0  5.978395e+00 1.555215e+00 -2.699793e-06   -4.199281e-07 1.071984e-06 1.171781e+00 2.000000e-01  6.250000e-02  
-5.000000e-01  -1.500000e+00  -1.750000e+00  0  2206 0  -1.770273e+00 -6.347506e+00 5.997433e+00   -1.630118e-01 -2.765497e-01 6.788701e-01 2.000000e-01  6.250000e-02  
-2.500000e-01  -1.500000e+00  -2.000000e+00  0  2103 0  8.378331e+00 -1.614766e+00 -1.359615e-06   -2.274651e-07 2.707769e-07 1.382860e-02 2.000000e-01  6.250000e-02  
-2.500000e-01  -1.500000e+00  -1.750000e+00  0  2207 0  3.808377e+00 -4.880874e+00 5.285878e+00   2.259753e-01 -8.424641e-01 1.005198e-01 2.000000e-01  6.250000e-02  
0.000000e+00  -1.500000e+00  -2.000000e+00  0  2104 0  8.686751e-01 8.140296e-02 -2.297993e-08   -1.258175e-07 -2.045323e-07 -3.965121e-01 2.000000e-01  6.250000e-02  
0.000000e+00  -1.500000e+00  -1.750000e+00  0  2208 0  -1.935135e+00 -1.983400e-01 3.562981e+00   -7.643643e-01 -1.149557e-01 -3.428916e-01 2.000000e-01  6.250000e-02  
-1.750000e+00  -1.250000e+00  -2.000000e+00  0  350 0  -3.287160e+00 -4.924048e+00 3.087742e-06   2.727903e-07 1.196310e-06 5.304928e-02 2.000000e-01  6.250000e-02  
-2.000000e+00  -1.250000e+00  -2.000000e+00  0  349 0  2.031290e+00 9.399327e+00 -3.656501e-06   -6.114552e-07 -1.667325e-08 -3.173506e-01 2.000000e-01  6.250000e-02  
-1.750000e+00  -1.250000e+00  -1.750000e+00  0  493 0  4.639581e+00 -1.031945e+01 3.769923e+00   -6.672863e-01 -2.614346e-02 2.866282e-01 2.000000e-01  6.250000e-02  
-2.000000e+00  -1.250000e+00  -1.750000e+00  0  492 0  -7.989112e-03 -3.446456e+00 -2.172486e+00   -4.069944e-01 4.895477e-01 -2.196598e-01 2.000000e-01  6.250000e-02  
-1.500000e+00  -1.250000e+00  -2.000000e+00  0  351 0  2.167983e+00 -1.261454e+00 -1.067214e-06   -1.620371e-07 4.835872e-08 5.116365e-01 2.000000e-01  6.250000e-02  
-1.500000e+00  -1.250000e+00  -1.750000e+00  0  494 0  -3.805207e+00 3.471140e+00 2.466096e+00   -5.960508e-01 -1.171216e+00 6.591735e-01 2.000000e-01  6.250000e-02  
-1.250000e+00  -1.250000e+00  -2.000000e+00  0  2107 0  -1.427712e+00 -1.427700e+00 -7.903288e-07   6.035583e-08 -4.607216e-08 -6.645751e-08 2.000000e-01  6.250000e-02  
-1.250000e+00  -1.250000e+00  -1.750000e+00  0  2211 0  -6.130466e+00 -6.130470e+00 -8.296613e+00   1.025912e-01 -1.025903e-01 -5.132300e-07 2.000000e-01  6.250000e-02  
-1.000000e+00  -1.250000e+00  -2.000000e+00  0  2108 0  -3.560544e-01 1.404062e+00 1.154952e-06   2.971680e-07 5.907591e-07 3.810502e-02 2.000000e-01  6.250000e-02  
-1.000000e+00  -1.250000e+00  -1.750000e+00  0  2212 0  -3.911167e+00 -4.390315e+00 -8.556281e-01   4.292079e-01 7.673087e-01 1.764853e-01 2.000000e-01  6.250000e-02  
-7.500000e-01  -1.250000e+00  -2.000000e+00  0  2109 0  5.597215e-02 -7.875909e+00 3.397222e-07   3.173308e-07 1.712078e-07 1.645735e+00 2.000000e-01  6.250000e-02  
-7.500000e-01  -1.250000e+00  -1.750000e+00  0  2213 0  1.032951e+00 1.073405e+00 -4.790345e-02   2.919418e-01 2.086242e+00 6.748677e-01 2.000000e-01  6.250000e-02  
-5.000000e-01  -1.250000e+00  -2.000000e+00  0  2110 0  -6.938137e+00 5.385872e+00 -3.317969e-07   1.319605e-07 2.361057e-07 1.225489e+00 2.000000e-01  6.250000e-02  
-5.000000e-01  -1.250000e+00  -1.750000e+00  0  2214 0  3.220660e-01 4.247469e-01 -4.890565e+00   -3.341832e-01 7.562915e-01 2.453614e-01 2.000000e-01  6.250000e-02  
-2.500000e-01  -1.250000e+00  -2.000000e+00  0  2111 0  9.436274e-01 1.665110e+00 1.335963e-07   1.266855e-08 5.209960e-08 1.094856e+00 2.000000e-01  6.250000e-02  
-2.500000e-01  -1.250000e+00  -1.750000e+00  0  2215 0  -4.471046e-01 -1.534774e+00 -4.477629e+00   -8.575975e-01 4.456490e-01 2.946772e-01 2.000000e-01  6.250000e-02  
0.000000e+00  -1.250000e+00  -2.000000e+00  0  2112 0  6.837725e-03 -1.091287e+01 -2.211009e-07   -1.187549e-07 -6.451446e-08 2.835102e-01 2.000000e-01  6.250000e-02  
0.000000e+00  -1.250000e+00  -1.750000e+00  0  2216 0  1.130363e+00 -7.586620e+00 1.878467e+00   -4.775054e-01 7.177106e-02 7.878530e-02 2.000000e-01  6.250000e-02  
-1.750000e+00  -1.000000e+00  -2.000000e+00  0  361 0  6.476510e+00 -9.402587e-01 1.912860e-06   -5.280734e-07 1.717299e-07 2.885568e-01 2.000000e-01  6.250000e-02  
-2.000000e+00  -1.000000e+00  -2.000000e+00  0  360 0  3.077696e-01 7.181486e+00 -3.228055e-06   2.799605e-07 1.196447e-07 -1.312514e-01 2.000000e-01  6.250000e-02  
-1.750000e+00  -1.000000e+00  -1.750000e+00  0  504 0  3.060432e+00 -3.766730e-01 2.441344e+00   -8.828877e-02 -4.157840e-01 7.689040e-01 2.000000e-01  6.250000e-02  
-2.000000e+00  -1.000000e+00  -1.750000e+00  0  503 0  -1.127161e+00 -4.128796e+00 4.356681e+00   3.791224e-02 3.349794e-01 -1.216578e-02 2.000000e-01  6.250000e-02  
-1.500000e+00  -1.000000e+00  -2.000000e+00  0  362 0  1.988382e+00 4.476502e+00 -6.763804e-07   -8.036513e-07 -7.687569e-07 -7.651650e-01 2.000000e-01  6.250000e-02  
-1.500000e+00  -1.000000e+00  -1.750000e+00  0  505 0  -6.585715e+00 -2.314332e+00 -8.250757e+00   -5.087354e-01 -5.214624e-01 -1.537528e+00 2.000000e-01  6.250000e-02  
-1.250000e+00  -1.000000e+00  -2.000000e+00  0  2115 0  1.404070e+00 -3.560689e-01 1.093412e-06   -5.821705e-07 -3.001599e-07 -3.810569e-02 2.000000e-01  6.250000e-02  
-1.250000e+00  -1.000000e+00  -1.750000e+00  0  2219 0  -4.390316e+00 -3.911180e+00 -8.556341e-01   -7.673077e-01 -4.292069e-01 -1.764859e-01 2.000000e-01  6.250000e-02  
-1.000000e+00  -1.000000e+00  -2.000000e+00  0  2116 0  4.733496e+00 4.733491e+00 -5.020729e-08   -1.349732e-07 1.383141e-07 -2.796340e-07 2.000000e-01  6.250000e-02  
-1.000000e+00  -1.000000e+00  -1.750000e+00  0  2220 0  -1.811021e+00 -1.811018e+00 -6.234400e-01   -2.501615e-01 2.501628e-01 -3.371099e-07 2.000000e-01  6.250000e-02  
-7.500000e-01  -1.000000e+00  -2.000000e+00  0  2117 0  7.095816e+00 -5.058036e-01 6.954264e-07   1.111107e-08 1.558843e-07 -2.550371e+00 2.000000e-01  6.250000e-02  
-7.500000e-01  -1.000000e+00  -1.750000e+00  0  2221 0  2.683774e+00 -1.196222e+00 2.485324e+00   5.236988e-01 2.902658e+00 -2.653747e+00 2.000000e-01  6.250000e-02  
-5.000000e-01  -1.000000e+00  -2.000000e+00  0  2118 0  4.500582e+00 -3.267841e+00 -1.239853e-08   -5.175207e-08 -4.346374e-08 -1.382095e+00 2.000000e-01  6.250000e-02  
-5.000000e-01  -1.000000e+00  -1.750000e+00  0  2222 0  1.071171e+00 5.292655e+00 9.180930e-02   7.288491e-01 1.994224e+00 -9.610970e-01 2.000000e-01  6.250000e-02  
-2.500000e-01  -1.000000e+00  -2.000000e+00  0  2119 0  1.197297e+01 -3.024452e+00 -7.952256e-08   -1.333308e-10 2.473919e-09 1.135031e+00 2.000000e-01  6.250000e-02  
-2.500000e-01  -1.000000e+00  -1.750000e+00  0  2223 0  7.521909e+00 4.734248e+00 -3.865451e-01   1.612709e+00 8.211489e-01 5.204612e-01 2.000000e-01  6.250000e-02  
0.000000e+00  -1.000000e+00  -2.000000e+00  0  2120 0  3.119088e+00 1.296720e+01 -2.060204e-08   5.021064e-09 1.789268e-08 1.664809e-01 2.000000e-01  6.250000e-02  
0.000000e+00  -1.000000e+00  -1.750000e+00  0  2224 0  -7.869159e-02 -4.879196e+00 -4.195289e+00   2.525068e+00 9.958909e-02 9.018462e-02 2.000000e-01  6.250000e-02  
-1.750000e+00  -7.500000e-01  -2.000000e+00  0  372 0  1.075081e+01 6.744630e+00 1.065195e-06   -1.054474e-06 2.962123e-07 1.343020e-01 2.000000e-01  6.250000e-02  
-2.000000e+00  -7.500000e-01  -2.000000e+00  0  371 0  2.038249e+00 -7.802823e+00 3.326246e-06   -5.268746e-07 -2.854170e-07 2.250018e-02 2.000000e-01  6.250000e-02  
-1.750000e+00  -7.500000e-01  -1.750000e+00  0  515 0  -2.203655e+00 -7.606068e+00 -2.951436e+00   -4.034002e-01 -6.426760e-01 3.629876e-01 2.000000e-01  6.250000e-02  
-2.000000e+00  -7.500000e-01  -1.750000e+00  0  514 0  -1.219428e+00 7.750894e+00 9.708222e+00   -1.183603e-01 -1.060114e-01 2.735072e-01 2.000000e-01  6.250000e-02  
-1.500000e+00  -7.500000e-01  -2.000000e+00  0  373 0  6.696475e+00 4.580367e+00 -9.168003e-07   -6.689041e-07 2.061782e-08 -2.544841e+00 2.000000e-01  6.250000e-02  
-1.500000e+00  -7.500000e-01  -1.750000e+00  0  516 0  1.916164e+00 6.604920e+00 4.162506e+00   -9.200783e-01 8.699593e-01 -2.708916e+00 2.000000e-01  6.250000e-02  
-1.250000e+00  -7.500000e-01  -2.000000e+00  0  2123 0  -7.875901e+00 5.596984e-02 3.050525e-07   -1.636667e-07 -3.260902e-07 -1.645734e+00 2.000000e-01  6.250000e-02  
-1.250000e+00  -7.500000e-01  -1.750000e+00  0  2227 0  1.073413e+00 1.032962e+00 -4.790686e-02   -2.086243e+00 -2.919414e-01 -6.748660e-01 2.000000e-01  6.250000e-02  
-1.000000e+00  -7.500000e-01  -2.000000e+00  0  2124 0  -5.058081e-01 7.095815e+00 6.987463e-07   -1.522397e-07 -1.084016e-08 2.550370e+00 2.000000e-01  6.250000e-02  
-1.000000e+00  -7.500000e-01  -1.750000e+00  0  2228 0  -1.196216e+00 2.683772e+00 2.485322e+00   -2.902659e+00 -5.236978e-01 2.653746e+00 2.000000e-01  6.250000e-02  
-7.500000e-01  -7.500000e-01  -2.000000e+00  0  2125 0  -2.403112e+00 -2.403115e+00 2.426815e-07   -9.016143e-08 9.061382e-08 -6.832267e-07 2.000000e-01  6.250000e-02  
-7.500000e-01  -7.500000e-01  -1.750000e+00  0  2229 0  -6.009242e+00 -6.009238e+00 -1.543259e+00   -1.754881e+00 1.754881e+00 -7.672223e-07 2.000000e-01  6.250000e-02  
-5.000000e-01  -7.500000e-01  -2.000000e+00  0  2126 0  4.174718e+00 -2.568202e-01 1.636221e-07   -3.305566e-08 -1.210743e-07 -6.419731e-01 2.000000e-01  6.250000e-02  
-5.000000e-01  -7.500000e-01  -1.750000e+00  0  2230 0  2.700524e-01 -4.285499e+00 -9.620215e-01   -6.428907e-01 1.513936e+00 -6.486692e-01 2.000000e-01  6.250000e-02  
-2.500000e-01  -7.500000e-01  -2.000000e+00  0  2127 0  -1.019885e+01 3.336217e+00 -8.902716e-09   1.805326e-09 -1.064267e-07 1.102618e-01 2.000000e-01  6.250000e-02  
-2.500000e-01  -7.500000e-01  -1.750000e+00  0  2231 0  2.563550e+00 3.177847e+00 -9.477176e-01   1.026083e+00 -1.426555e-01 -7.982101e-01 2.000000e-01  6.250000e-02  
0.000000e+00  -7.500000e-01  -2.000000e+00  0  2128 0  8.608685e-01 -1.255993e+00 1.158604e-07   1.883857e-08 -1.586009e-08 -3.242867e-01 2.000000e-01  6.250000e-02  
0.000000e+00  -7.500000e-01  -1.750000e+00  0  2232 0  8.161035e-01 -4.430288e-02 -4.709356e+00   2.544723e+00 1.097380e-01 -2.022936e-01 2.000000e-01  6.250000e-02  
-1.750000e+00  -5.000000e-01  -2.000000e+00  0  383 0  -1.222961e+00 2.104832e+00 -1.060617e-06   -1.560289e-06 5.756922e-07 -1.261611e+00 2.000000e-01  6.250000e-02  
-2.000000e+00  -5.000000e-01  -2.000000e+00  0  382 0  -6.317465e+00 -2.764415e-01 -7.464454e-07   -7.339161e-07 -2.273701e-08 -4.876333e-01 2.000000e-01  6.250000e-02  
-1.750000e+00  -5.000000e-01  -1.750000e+00  0  526 0  -2.324161e+00 2.111262e+00 -3.908001e+00   1.112241e-01 -5.509420e-01 -8.525657e-01 2.000000e-01  6.250000e-02  
-2.000000e+00  -5.000000e-01  -1.750000e+00  0  525 0  1.884388e+00 -1.193046e+00 3.980017e+00   7.529453e-01 -4.157782e-01 -2.315761e-01 2.000000e-01  6.250000e-02  
-1.500000e+00  -5.000000e-01  -2.000000e+00  0  384 0  1.555220e+00 5.978376e+00 -2.659035e-06   -1.060211e-06 4.221333e-07 -1.171783e+00 2.000000e-01  6.250000e-02  
-1.500000e+00  -5.000000e-01  -1.750000e+00  0  527 0  -6.347513e+00 -1.770268e+00 5.997431e+00   2.765508e-01 1.630122e-01 -6.788748e-01 2.000000e-01  6.250000e-02  
-1.250000e+00  -5.000000e-01  -2.000000e+00  0  2131 0  5.385877e+00 -6.938139e+00 -2.868801e-07   -2.323176e-07 -1.412059e-07 -1.225487e+00 2.000000e-01  6.250000e-02  
-1.250000e+00  -5.000000e-01  -1.750000e+00  0  2235 0  4.247359e-01 3.220607e-01 -4.890567e+00   -7.562911e-01 3.341837e-01 -2.453600e-01 2.000000e-01  6.250000e-02  
-1.000000e+00  -5.000000e-01  -2.000000e+00  0  2132 0  -3.267844e+00 4.500578e+00 6.108008e-09   4.180763e-08 5.261836e-08 1.382095e+00 2.000000e-01  6.250000e-02  
-1.000000e+00  -5.000000e-01  -1.750000e+00  0  2236 0  5.292657e+00 1.071168e+00 9.180698e-02   -1.994224e+00 -7.288487e-01 9.610974e-01 2.000000e-01  6.250000e-02  
-7.500000e-01  -5.000000e-01  -2.000000e+00  0  2133 0  -2.568213e-01 4.174719e+00 1.665167e-07   1.204352e-07 3.063204e-08 6.419728e-01 2.000000e-01  6.250000e-02  
-7.500000e-01  -5.000000e-01  -1.750000e+00  0  2237 0  -4.285499e+00 2.700492e-01 -9.620229e-01   -1.513936e+00 6.428905e-01 6.486693e-01 2.000000e-01  6.250000e-02  
-5.000000e-01  -5.000000e-01  -2.000000e+00  0  2134 0  -8.937806e+00 -8.937805e+00 -1.868464e-07   4.796189e-08 -4.720094e-08 9.478597e-07 2.000000e-01  6.250000e-02  
-5.000000e-01  -5.000000e-01  -1.750000e+00  0  2238 0  -2.035331e+00 -2.035328e+00 7.712833e+00   -1.450289e+00 1.450289e+00 6.061109e-07 2.000000e-01  6.250000e-02  
-2.500000e-01  -5.000000e-01  -2.000000e+00  0  2135 0  1.417992e+00 1.164158e+00 6.628536e-08   3.624773e-08 -7.440524e-08 4.681044e-01 2.000000e-01  6.250000e-02  
-2.500000e-01  -5.000000e-01  -1.750000e+00  0  2239 0  5.849555e+00 2.137010e+00 1.443848e+00   -7.227390e-01 -7.077444e-01 -3.845145e-01 2.000000e-01  6.250000e-02  
0.000000e+00  -5.000000e-01  -2.000000e+00  0  2136 0  -1.478455e+00 -7.065002e+00 -5.916511e-08   1.705057e-08 -1.168564e-08 3.817417e-02 2.000000e-01  6.250000e-02  
0.000000e+00  -5.000000e-01  -1.750000e+00  0  2240 0  -8.253949e-02 -1.764451e+00 1.206088e+00   5.067445e-02 -3.438267e-02 9.442737e-02 2.000000e-01  6.250000e-02  
-1.750000e+00  -2.500000e-01  -2.000000e+00  0  394 0  2.109384e+00 -4.561621e+00 -6.834091e-07   -6.098203e-07 2.642246e-07 1.934207e-02 2.000000e-01  6.250000e-02  
-2.000000e+00  -2.500000e-01  -2.000000e+00  0  393 0  1.235689e+00 8.145074e+00 -1.267799e-06   -4.206054e-07 1.078785e-07 2.308917e-01 2.000000e-01  6.250000e-02  
-1.750000e+00  -2.500000e-01  -1.750000e+00  0  537 0  -4.761480e+00 2.092895e+00 -6.462659e+00   6.654248e-01 -3.148465e-01 -9.853915e-01 2.000000e-01  6.250000e-02  
-2.000000e+00  -2.500000e-01  -1.750000e+00  0  536 0  1.277744e+00 -3.573956e+00 8.129309e-01   -1.624613e-01 -2.653977e-01 -2.116543e-03 2.000000e-01  6.250000e-02  
-1.500000e+00  -2.500000e-01  -2.000000e+00  0  395 0  -1.614775e+00 8.378334e+00 -1.423342e-06   -2.702870e-07 2.379159e-07 -1.383015e-02 2.000000e-01  6.250000e-02  
-1.500000e+00  -2.500000e-01  -1.750000e+00  0  538 0  -4.880872e+00 3.808390e+00 5.285878e+00   8.424616e-01 -2.259761e-01 -1.005208e-01 2.000000e-01  6.250000e-02  
-1.250000e+00  -2.500000e-01  -2.000000e+00  0  2139 0  1.665106e+00 9.436315e-01 1.620719e-07   -7.247864e-08 -1.302523e-08 -1.094856e+00 2.000000e-01  6.250000e-02  
-1.250000e+00  -2.500000e-01  -1.750000e+00  0  2243 0  -1.534769e+00 -4.471059e-01 -4.477623e+00   -4.456471e-01 8.575976e-01 -2.946763e-01 2.000000e-01  6.250000e-02  
-1.000000e+00  -2.500000e-01  -2.000000e+00  0  2140 0  -3.024454e+00 1.197297e+01 -6.942612e-08   -1.458540e-08 5.304678e-09 -1.135029e+00 2.000000e-01  6.250000e-02  
-1.000000e+00  -2.500000e-01  -1.750000e+00  0  2244 0  4.734246e+00 7.521910e+00 -3.865441e-01   -8.211474e-01 -1.612708e+00 -5.204604e-01 2.000000e-01  6.250000e-02  
-7.500000e-01  -2.500000e-01  -2.000000e+00  0  2141 0  3.336214e+00 -1.019886e+01 -1.201820e-08   1.117756e-07 -1.867006e-09 -1.102617e-01 2.000000e-01  6.250000e-02  
-7.500000e-01  -2.500000e-01  -1.750000e+00  0  2245 0  3.177846e+00 2.563555e+00 -9.477190e-01   1.426557e-01 -1.026082e+00 7.982104e-01 2.000000e-01  6.250000e-02  
-5.000000e-01  -2.500000e-01  -2.000000e+00  0  2142 0  1.164158e+00 1.417990e+00 6.632065e-08   7.695949e-08 -3.295134e-08 -4.681030e-01 2.000000e-01  6.250000e-02  
-5.000000e-01  -2.500000e-01  -1.750000e+00  0  2246 0  2.137012e+00 5.849554e+00 1.443846e+00   7.077442e-01 7.227392e-01 3.845154e-01 2.000000e-01  6.250000e-02  
-2.500000e-01  -2.500000e-01  -2.000000e+00  0  2143 0  -1.466032e+00 -1.466032e+00 -2.388011e-08   2.429658e-08 -2.402366e-08 1.824985e-07 2.000000e-01  6.250000e-02  
-2.500000e-01  -2.500000e-01  -1.750000e+00  0  2247 0  3.746239e+00 3.746236e+00 4.931003e+00   2.340509e-01 -2.340507e-01 9.513261e-08 2.000000e-01  6.250000e-02  
0.000000e+00  -2.500000e-01  -2.000000e+00  0  2144 0  -4.366177e-01 -2.582128e+00 3.555159e-08   1.254542e-08 8.220714e-09 1.446825e-01 2.000000e-01  6.250000e-02  
0.000000e+00  -2.500000e-01  -1.750000e+00  0  2248 0  3.425547e-01 -1.214093e-01 -5.210516e+00   -5.566220e-03 -1.804742e-01 7.964965e-02 2.000000e-01  6.250000e-02  
-1.750000e+00  0.000000e+00  -2.000000e+00  0  405 0  -4.245238e+00 9.080460e-01 -1.975102e-06   1.519178e-07 -9.002070e-08 6.280698e-01 2.000000e-01  6.250000e-02  
-2.000000e+00  0.000000e+00  -2.000000e+00  0  404 0  1.275237e-04 -1.767465e-04 1.839842e-07   1.655795e-08 5.971388e-09 6.646294e-01 2.000000e-01  6.250000e-02  
-1.750000e+00  0.000000e+00  -1.750000e+00  0  548 0  4.366437e+00 -1.860169e+00 4.950468e+00   2.369148e-01 6.214457e-02 3.507100e-01 2.000000e-01  6.250000e-02  
-2.000000e+00  0.000000e+00  -1.750000e+00  0  547 0  -6.878229e-06 1.803180e-05 -4.960415e+00   1.592907e-05 -2.455013e-05 4.725824e-01 2.000000e-01  6.250000e-02  
-1.500000e+00  0.000000e+00  -2.000000e+00  0  406 0  8.141230e-02 8.686744e-01 -1.097546e-08   1.882554e-07 1.289321e-07 3.965076e-01 2.000000e-01  6.250000e-02  
-1.500000e+00  0.000000e+00  -1.750000e+00  0  549 0  -1.983475e-01 -1.935135e+00 3.562981e+00   1.149555e-01 7.643586e-01 3.428884e-01 2.000000e-01  6.250000e-02  
-1.250000e+00  0.000000e+00  -2.000000e+00  0  2147 0  -1.091287e+01 6.838888e-03 -2.573086e-07   2.342291e-08 1.302931e-07 -2.835096e-01 2.000000e-01  6.250000e-02  
-1.250000e+00  0.000000e+00  -1.750000e+00  0  2251 0  -7.586617e+00 1.130372e+00 1.878456e+00   -7.177204e-02 4.775037e-01 -7.878385e-02 2.000000e-01  6.250000e-02  
-1.000000e+00  0.000000e+00  -2.000000e+00  0  2148 0  1.296720e+01 3.119089e+00 -1.989523e-08   -4.571467e-08 7.665550e-10 -1.664793e-01 2.000000e-01  6.250000e-02  
-1.000000e+00  0.000000e+00  -1.750000e+00  0  2252 0  -4.879192e+00 -7.869215e-02 -4.195290e+00   -9.958914e-02 -2.525066e+00 -9.018349e-02 2.000000e-01  6.250000e-02  
-7.500000e-01  0.000000e+00  -2.000000e+00  0  2149 0  -1.255992e+00 8.608706e-01 1.251325e-07   1.451175e-08 -2.004856e-08 3.242872e-01 2.000000e-01  6.250000e-02  
-7.500000e-01  0.000000e+00  -1.750000e+00  0  2253 0  -4.430552e-02 8.161063e-01 -4.709355e+00   -1.097374e-01 -2.544722e+00 2.022940e-01 2.000000e-01  6.250000e-02  
-5.000000e-01  0.000000e+00  -2.000000e+00  0  2150 0  -7.064999e+00 -1.478455e+00 -5.874708e-08   1.243445e-08 -1.507865e-08 -3.817450e-02 2.000000e-01  6.250000e-02  
-5.000000e-01  0.000000e+00  -1.750000e+00  0  2254 0  -1.764449e+00 -8.253974e-02 1.206088e+00   3.438313e-02 -5.067411e-02 -9.442762e-02 2.000000e-01  6.250000e-02  
-2.500000e-01  0.000000e+00  -2.000000e+00  0  2151 0  -2.582128e+00 -4.366184e-01 4.726635e-08   -1.017067e-08 -1.359126e-08 -1.446831e-01 2.000000e-01  6.250000e-02  
-2.500000e-01  0.000000e+00  -1.750000e+00  0  2255 0  -1.214099e-01 3.425547e-01 -5.210515e+00   1.804744e-01 5.566504e-03 -7.965016e-02 2.000000e-01  6.250000e-02  
0.000000e+00  0.000000e+00  -2.000000e+00  0  2152 0  1.131786e-06 1.489329e-06 -2.729400e-07   -3.953123e-09 6.796951e-10 -1.299521e-07 2.000000e-01  6.250000e-02  
0.000000e+00  0.000000e+00  -1.750000e+00  0  2256 0  -1.062208e-07 -1.798997e-07 -1.078362e+00   4.290306e-07 -3.222902e-07 -8.674764e-08 2.000000e-01  6.250000e-02  
-2.000000e+00  -2.000000e+00  -1.500000e+00  0  602 0  -4.321215e-06 -9.191667e-07 8.165333e+00   -2.116242e-05 1.257466e-05 -5.508178e-07 2.000000e-01  6.250000e-02  
-1.750000e+00  -2.000000e+00  -1.500000e+00  0  603 0  2.790834e+00 8.286103e-01 3.711422e+00   5.007199e-02 -1.573887e+00 -6.336533e-01 2.000000e-01  6.250000e-02  
-1.750000e+00  -1.750000e+00  -1.500000e+00  0  614 0  -1.392230e+00 -1.392237e+00 1.180324e+00   1.293520e+00 -1.293526e+00 3.621495e-07 2.000000e-01  6.250000e-02  
-2.000000e+00  -1.750000e+00  -1.500000e+00  0  613 0  8.285901e-01 2.790865e+00 3.711445e+00   1.573883e+00 -5.008098e-02 6.336566e-01 2.000000e-01  6.250000e-02  
-1.500000e+00  -2.000000e+00  -1.500000e+00  0  604 0  -6.620494e+00 3.392662e+00 -8.028099e+00   -1.244667e-01 2.133024e-01 -3.705915e-01 2.000000e-01  6.250000e-02  
-1.500000e+00  -1.750000e+00  -1.500000e+00  0  615 0  -4.984439e+00 -5.267200e-01 -2.853311e+00   1.175141e-01 7.761216e-01 -4.281727e-01 2.000000e-01  6.250000e-02  
-1.250000e+00  -2.000000e+00  -1.500000e+00  0  2291 0  -2.125214e+00 -3.641960e-01 2.900235e-01   -4.500640e-01 3.455777e-01 1.408992e-01 2.000000e-01  6.250000e-02  
-1.250000e+00  -1.750000e+00  -1.500000e+00  0  2299 0  3.545836e+00 -2.943445e-01 -1.928912e+00   -6.637595e-01 8.507052e-01 -1.069785e+00 2.000000e-01  6.250000e-02  
-1.000000e+00  -2.000000e+00  -1.500000e+00  0  2292 0  9.044124e+00 -3.273942e-02 3.523584e+00   -1.869276e-01 -1.262895e+00 -7.484325e-03 2.000000e-01  6.250000e-02  
-1.000000e+00  -1.750000e+00  -1.500000e+00  0  2300 0  -1.688784e+00 1.636314e+00 -1.087079e+00   1.415571e-01 -2.394397e+00 -1.260115e+00 2.000000e-01  6.250000e-02  
-7.500000e-01  -2.000000e+00  -1.500000e+00  0  2293 0  3.885398e+00 4.960904e-01 4.043092e+00   -1.241941e-01 -2.967207e+00 -1.654997e-01 2.000000e-01  6.250000e-02  
-7.500000e-01  -1.750000e+00  -1.500000e+00  0  2301 0  7.627294e+00 3.071715e+00 9.458387e-01   8.732128e-01 -3.367966e+00 -3.013909e-01 2.000000e-01  6.250000e-02  
-5.000000e-01  -2.000000e+00  -1.500000e+00  0  2294 0  3.432358e+00 4.987434e-01 2.739249e+00   -3.150565e-01 -1.632342e+00 -3.036257e-01 2.000000e-01  6.250000e-02  
-5.000000e-01  -1.750000e+00  -1.500000e+00  0  2302 0  -5.747282e+00 5.225175e+00 -5.276846e+00   -1.450277e-01 -7.021342e-01 7.530276e-01 2.000000e-01  6.250000e-02  
-2.500000e-01  -2.000000e+00  -1.500000e+00  0  2295 0  8.486301e+00 -6.761208e-01 -1.307219e+00   -8.534287e-02 4.845311e-01 -5.494248e-02 2.000000e-01  6.250000e-02  