VARIABLES="X", "Y", "Z", "Maximum Refinment Level", "Temp_ID", "Thread","Ex (corner node)","Ey (corner node)","Ez (corner node)","Bx (center node)","By (center node)","Bz (center node)", "Local Time Step" , "log10(Local Particle Weight)" 
ZONE N=4913, E=4096, DATAPACKING=POINT, ZONETYPE=FEBRICK
-2.000000e+00  -2.000000e+00  -2.000000e+00  0  1064 0  3.926089e-05 -1.309264e-05 3.847964e-05   -2.723393e-07 1.239279e-07 -3.047858e-06 2.000000e-01  6.250000e-02  
-1.750000e+00  -2.000000e+00  -2.000000e+00  0  1065 0  5.356896e-02 -7.091057e-01 -2.566494e-05   6.332661e-07 -7.804621e-07 4.756252e-01 2.000000e-01  6.250000e-02  
-1.750000e+00  -1.750000e+00  -2.000000e+00  0  1076 0  -3.535066e+00 -3.535057e+00 1.144275e-05   5.658203e-07 -8.524629e-07 -7.645782e-06 2.000000e-01  6.250000e-02  
-2.000000e+00  -1.750000e+00  -2.000000e+00  0  1075 0  -7.091099e-01 5.345816e-02 -2.414776e-05   8.283154e-07 -7.366289e-07 -4.756390e-01 2.000000e-01  6.250000e-02  
-2.000000e+00  -2.000000e+00  -1.750000e+00  0  1185 0  -9.047378e-05 -7.856813e-05 4.139084e+00   -1.705972e-05 3.062213e-05 -1.399222e-06 2.000000e-01  6.250000e-02  
-1.750000e+00  -2.000000e+00  -1.750000e+00  0  1186 0  -5.328528e+00 -3.471796e+00 -2.654145e-01   -4.451054e-01 9.062700e-02 -4.790428e-02 2.000000e-01  6.250000e-02  
-1.750000e+00  -1.750000e+00  -1.750000e+00  0  1197 0  -5.398334e+00 -5.398313e+00 -4.876113e+00   -4.183907e-01 4.183988e-01 -4.766649e-06 2.000000e-01  6.250000e-02  
-2.000000e+00  -1.750000e+00  -1.750000e+00  0  1196 0  -3.471800e+00 -5.328534e+00 -2.654405e-01   -9.061361e-02 4.451158e-01 4.789463e-02 2.000000e-01  6.250000e-02  
-1.500000e+00  -2.000000e+00  -2.000000e+00  0  1066 0  9.498141e+00 1.021866e+00 1.049160e-05   1.743876e-06 -4.880103e-07 2.530042e-01 2.000000e-01  6.250000e-02  
-1.500000e+00  -1.750000e+00  -2.000000e+00  0  1077 0  4.819638e+00 2.345723e+00 -1.744542e-05   -3.789875e-06 3.862268e-06 -8.552250e-01 2.000000e-01  6.250000e-02  
-1.500000e+00  -2.000000e+00  -1.750000e+00  0  1187 0  4.612145e+00 2.799954e-01 3.264917e+00   -3.291693e-01 1.810834e+00 -1.070982e-01 2.000000e-01  6.250000e-02  
-1.500000e+00  -1.750000e+00  -1.750000e+00  0  1198 0  4.488045e+00 3.298263e+00 2.345920e+00   -2.718983e-01 2.127223e+00 -8.781857e-01 2.000000e-01  6.250000e-02  
-1.250000e+00  -2.000000e+00  -2.000000e+00  0  2099 0  9.399512e+00 2.031417e+00 -7.760548e-06   -6.668510e-07 1.869305e-06 3.173532e-01 2.000000e-01  6.250000e-02  
-1.250000e+00  -1.750000e+00  -2.000000e+00  0  2107 0  -4.924110e+00 -3.287157e+00 1.333221e-05   -4.614444e-06 1.790819e-07 -5.307858e-02 2.000000e-01  6.250000e-02  
-1.250000e+00  -2.000000e+00  -1.750000e+00  0  2187 0  -3.446461e+00 -8.005475e-03 -2.172476e+00   -4.895509e-01 4.070287e-01 2.196683e-01 2.000000e-01  6.250000e-02  
-1.250000e+00  -1.750000e+00  -1.750000e+00  0  2195 0  -1.031942e+01 4.639594e+00 3.769931e+00   2.613929e-02 6.673065e-01 -2.866520e-01 2.000000e-01  6.250000e-02  
-1.000000e+00  -2.000000e+00  -2.000000e+00  0  2100 0  7.181466e+00 3.075899e-01 -4.755421e-05   -7.680895e-07 -5.090689e-07 1.312630e-01 2.000000e-01  6.250000e-02  
-1.000000e+00  -1.750000e+00  -2.000000e+00  0  2108 0  -9.403355e-01 6.476525e+00 1.361647e-05   -1.274034e-06 2.863346e-06 -2.885710e-01 2.000000e-01  6.250000e-02  
-1.000000e+00  -2.000000e+00  -1.750000e+00  0  2188 0  -4.128895e+00 -1.127162e+00 4.356634e+00   -3.349755e-01 -3.788423e-02 1.217428e-02 2.000000e-01  6.250000e-02  
-1.000000e+00  -1.750000e+00  -1.750000e+00  0  2196 0  -3.766429e-01 3.060434e+00 2.441345e+00   4.157855e-01 8.830328e-02 -7.689157e-01 2.000000e-01  6.250000e-02  
-7.500000e-01  -2.000000e+00  -2.000000e+00  0  2101 0  -7.802609e+00 2.038271e+00 3.157413e-05   9.701638e-07 4.283586e-06 -2.251016e-02 2.000000e-01  6.250000e-02  
-7.500000e-01  -1.750000e+00  -2.000000e+00  0  2109 0  6.744751e+00 1.075073e+01 1.592539e-05   -2.746235e-06 8.273602e-06 -1.343134e-01 2.000000e-01  6.250000e-02  
-7.500000e-01  -2.000000e+00  -1.750000e+00  0  2189 0  7.750957e+00 -1.219369e+00 9.708192e+00   1.060138e-01 1.183629e-01 -2.735149e-01 2.000000e-01  6.250000e-02  
-7.500000e-01  -1.750000e+00  -1.750000e+00  0  2197 0  -7.606167e+00 -2.203689e+00 -2.951418e+00   6.426797e-01 4.034042e-01 -3.629952e-01 2.000000e-01  6.250000e-02  
-5.000000e-01  -2.000000e+00  -2.000000e+00  0  2102 0  -2.764122e-01 -6.317425e+00 9.687568e-06   -5.482347e-07 5.569356e-06 4.876240e-01 2.000000e-01  6.250000e-02  
-5.000000e-01  -1.750000e+00  -2.000000e+00  0  2110 0  2.104880e+00 -1.223018e+00 -2.143793e-05   -2.988758e-06 1.122519e-05 1.261591e+00 2.000000e-01  6.250000e-02  
-5.000000e-01  -2.000000e+00  -1.750000e+00  0  2190 0  -1.193037e+00 1.884461e+00 3.979955e+00   4.157742e-01 -7.529349e-01 2.315646e-01 2.000000e-01  6.250000e-02  
-5.000000e-01  -1.750000e+00  -1.750000e+00  0  2198 0  2.111130e+00 -2.324257e+00 -3.907990e+00   5.509369e-01 -1.112147e-01 8.525501e-01 2.000000e-01  6.250000e-02  
-2.500000e-01  -2.000000e+00  -2.000000e+00  0  2103 0  8.145051e+00 1.235721e+00 -2.261249e-06   -1.054324e-06 2.399880e-06 -2.308942e-01 2.000000e-01  6.250000e-02  
-2.500000e-01  -1.750000e+00  -2.000000e+00  0  2111 0  -4.561606e+00 2.109460e+00 -1.426988e-06   -4.100169e-07 3.941634e-06 -1.937179e-02 2.000000e-01  6.250000e-02  
-2.500000e-01  -2.000000e+00  -1.750000e+00  0  2191 0  -3.573941e+00 1.277756e+00 8.129706e-01   2.653936e-01 1.624909e-01 2.112133e-03 2.000000e-01  6.250000e-02  
-2.500000e-01  -1.750000e+00  -1.750000e+00  0  2199 0  2.092970e+00 -4.761510e+00 -6.462690e+00   3.148379e-01 -6.654042e-01 9.853675e-01 2.000000e-01  6.250000e-02  
0.000000e+00  -2.000000e+00  -2.000000e+00  0  2104 0  -1.031615e-04 7.633717e-05 4.315463e-07   -3.059185e-08 3.980511e-08 -6.646416e-01 2.000000e-01  6.250000e-02  
0.000000e+00  -1.750000e+00  -2.000000e+00  0  2112 0  9.080532e-01 -4.245051e+00 -1.283483e-05   1.368144e-06 -1.187122e-06 -6.280820e-01 2.000000e-01  6.250000e-02  
0.000000e+00  -2.000000e+00  -1.750000e+00  0  2192 0  1.455545e-05 -1.543267e-05 -4.960296e+00   1.456019e-05 -8.924488e-06 -4.725872e-01 2.000000e-01  6.250000e-02  
0.000000e+00  -1.750000e+00  -1.750000e+00  0  2200 0  -1.860158e+00 4.366580e+00 4.950583e+00   -6.215415e-02 -2.369162e-01 -3.507116e-01 2.000000e-01  6.250000e-02  
-1.750000e+00  -1.500000e+00  -2.000000e+00  0  1087 0  2.345742e+00 4.819663e+00 -1.605480e-05   -3.914039e-06 3.561862e-06 8.552137e-01 2.000000e-01  6.250000e-02  
-2.000000e+00  -1.500000e+00  -2.000000e+00  0  1086 0  1.021876e+00 9.498168e+00 1.046638e-05   6.537634e-07 -1.761728e-06 -2.530202e-01 2.000000e-01  6.250000e-02  
-1.750000e+00  -1.500000e+00  -1.750000e+00  0  1208 0  3.298283e+00 4.488072e+00 2.345928e+00   -2.127222e+00 2.719018e-01 8.781786e-01 2.000000e-01  6.250000e-02  
-2.000000e+00  -1.500000e+00  -1.750000e+00  0  1207 0  2.800106e-01 4.612155e+00 3.264914e+00   -1.810829e+00 3.291722e-01 1.070905e-01 2.000000e-01  6.250000e-02  
-1.500000e+00  -1.500000e+00  -2.000000e+00  0  1088 0  -6.674368e+00 -6.674350e+00 -4.151893e-05   -1.108375e-05 1.100000e-05 2.696170e-06 2.000000e-01  6.250000e-02  
-1.500000e+00  -1.500000e+00  -1.750000e+00  0  1209 0  -4.015423e+00 -4.015420e+00 2.018256e-01   -5.666413e-01 5.666409e-01 1.207853e-06 2.000000e-01  6.250000e-02  
-1.250000e+00  -1.500000e+00  -2.000000e+00  0  2115 0  -1.261381e+00 2.168006e+00 -3.108803e-06   -4.364432e-07 3.293901e-06 -5.116324e-01 2.000000e-01  6.250000e-02  
-1.250000e+00  -1.500000e+00  -1.750000e+00  0  2203 0  3.471188e+00 -3.805200e+00 2.466140e+00   1.171208e+00 5.960576e-01 -6.591735e-01 2.000000e-01  6.250000e-02  
-1.000000e+00  -1.500000e+00  -2.000000e+00  0  2116 0  4.476682e+00 1.988400e+00 -1.914770e-06   5.104973e-06 4.555986e-06 7.651735e-01 2.000000e-01  6.250000e-02  
-1.000000e+00  -1.500000e+00  -1.750000e+00  0  2204 0  -2.314590e+00 -6.585877e+00 -8.250800e+00   5.214553e-01 5.087447e-01 1.537533e+00 2.000000e-01  6.250000e-02  
-7.500000e-01  -1.500000e+00  -2.000000e+00  0  2117 0  4.580341e+00 6.696502e+00 -1.023691e-05   8.819520e-07 5.344152e-06 2.544849e+00 2.000000e-01  6.250000e-02  
-7.500000e-01  -1.500000e+00  -1.750000e+00  0  2205 0  6.604895e+00 1.916159e+00 4.162480e+00   -8.699667e-01 9.200856e-01 2.708927e+00 2.000000e-01  6.250000e-02  
-5.000000e-01  -1.500000e+00  -2.000000e+00  0  2118 0  5.978316e+00 1.555189e+00 -2.350733e-05   -1.420195e-06 7.687493e-06 1.171787e+00 2.000000e-01  6.250000e-02  
-5.000000e-01  -1.500000e+00  -1.750000e+00  0  2206 0  -1.770251e+00 -6.347514e+00 5.997448e+00   -1.630154e-01 -2.765449e-01 6.788802e-01 2.000000e-01  6.250000e-02  
-2.500000e-01  -1.500000e+00  -2.000000e+00  0  2119 0  8.378313e+00 -1.614730e+00 5.044908e-07   7.205840e-07 1.962392e-06 1.381099e-02 2.000000e-01  6.250000e-02  
-2.500000e-01  -1.500000e+00  -1.750000e+00  0  2207 0  3.808485e+00 -4.880834e+00 5.285911e+00   2.259831e-01 -8.424605e-01 1.005069e-01 2.000000e-01  6.250000e-02  
0.000000e+00  -1.500000e+00  -2.000000e+00  0  2120 0  8.686833e-01 8.140471e-02 3.288732e-06   1.398198e-06 -1.714326e-06 -3.965158e-01 2.000000e-01  6.250000e-02  
0.000000e+00  -1.500000e+00  -1.750000e+00  0  2208 0  -1.935109e+00 -1.983437e-01 3.562980e+00   -7.643526e-01 -1.149642e-01 -3.428893e-01 2.000000e-01  6.250000e-02  
-1.750000e+00  -1.250000e+00  -2.000000e+00  0  3012 0  -3.287169e+00 -4.924087e+00 1.367274e-05   -1.112115e-07 4.653057e-06 5.306400e-02 2.000000e-01  6.250000e-02  
-2.000000e+00  -1.250000e+00  -2.000000e+00  0  3011 0  2.031335e+00 9.399444e+00 -7.113563e-06   -1.744316e-06 6.617022e-07 -3.173508e-01 2.000000e-01  6.250000e-02  
-1.750000e+00  -1.250000e+00  -1.750000e+00  0  3100 0  4.639582e+00 -1.031943e+01 3.769918e+00   -6.673016e-01 -2.613853e-02 2.866429e-01 2.000000e-01  6.250000e-02  
-2.000000e+00  -1.250000e+00  -1.750000e+00  0  3099 0  -7.997205e-03 -3.446447e+00 -2.172491e+00   -4.070151e-01 4.895516e-01 -2.196654e-01 2.000000e-01  6.250000e-02  
-1.500000e+00  -1.250000e+00  -2.000000e+00  0  3013 0  2.168008e+00 -1.261379e+00 -3.155779e-06   -3.286368e-06 4.609886e-07 5.116308e-01 2.000000e-01  6.250000e-02  
-1.500000e+00  -1.250000e+00  -1.750000e+00  0  3101 0  -3.805205e+00 3.471187e+00 2.466141e+00   -5.960577e-01 -1.171208e+00 6.591732e-01 2.000000e-01  6.250000e-02  
-1.250000e+00  -1.250000e+00  -2.000000e+00  0  3779 0  -1.427690e+00 -1.427690e+00 -6.223669e-06   6.312496e-07 -6.872859e-07 4.501770e-07 2.000000e-01  6.250000e-02  
-1.250000e+00  -1.250000e+00  -1.750000e+00  0  3843 0  -6.130459e+00 -6.130455e+00 -8.296564e+00   1.025848e-01 -1.025856e-01 9.333044e-07 2.000000e-01  6.250000e-02  
-1.000000e+00  -1.250000e+00  -2.000000e+00  0  3780 0  -3.559837e-01 1.404118e+00 4.796144e-06   3.237542e-06 2.164643e-06 3.810597e-02 2.000000e-01  6.250000e-02  
-1.000000e+00  -1.250000e+00  -1.750000e+00  0  3844 0  -3.911219e+00 -4.390320e+00 -8.555907e-01   4.292038e-01 7.673201e-01 1.764870e-01 2.000000e-01  6.250000e-02  
-7.500000e-01  -1.250000e+00  -2.000000e+00  0  3781 0  5.595697e-02 -7.875862e+00 6.791276e-06   2.354684e-06 1.649425e-06 1.645726e+00 2.000000e-01  6.250000e-02  
-7.500000e-01  -1.250000e+00  -1.750000e+00  0  3845 0  1.032967e+00 1.073431e+00 -4.793493e-02   2.919411e-01 2.086252e+00 6.748604e-01 2.000000e-01  6.250000e-02  
-5.000000e-01  -1.250000e+00  -2.000000e+00  0  3782 0  -6.938148e+00 5.385873e+00 -6.318304e-06   6.844380e-07 2.043822e-06 1.225484e+00 2.000000e-01  6.250000e-02  
-5.000000e-01  -1.250000e+00  -1.750000e+00  0  3846 0  3.220355e-01 4.247432e-01 -4.890588e+00   -3.341793e-01 7.562902e-01 2.453586e-01 2.000000e-01  6.250000e-02  
-2.500000e-01  -1.250000e+00  -2.000000e+00  0  3783 0  9.436074e-01 1.665089e+00 -3.724490e-07   3.562261e-07 4.847424e-07 1.094848e+00 2.000000e-01  6.250000e-02  
-2.500000e-01  -1.250000e+00  -1.750000e+00  0  3847 0  -4.471002e-01 -1.534798e+00 -4.477605e+00   -8.575903e-01 4.456353e-01 2.946710e-01 2.000000e-01  6.250000e-02  
0.000000e+00  -1.250000e+00  -2.000000e+00  0  3784 0  6.849994e-03 -1.091288e+01 -2.017530e-06   -3.250841e-07 -5.185177e-07 2.835072e-01 2.000000e-01  6.250000e-02  
0.000000e+00  -1.250000e+00  -1.750000e+00  0  3848 0  1.130374e+00 -7.586602e+00 1.878433e+00   -4.774992e-01 7.176525e-02 7.878097e-02 2.000000e-01  6.250000e-02  
-1.750000e+00  -1.000000e+00  -2.000000e+00  0  3023 0  6.476507e+00 -9.403153e-01 1.390774e-05   -2.928793e-06 1.298673e-06 2.885607e-01 2.000000e-01  6.250000e-02  
-2.000000e+00  -1.000000e+00  -2.000000e+00  0  3022 0  3.076897e-01 7.181410e+00 -4.845098e-05   5.145701e-07 7.242318e-07 -1.312623e-01 2.000000e-01  6.250000e-02  
-1.750000e+00  -1.000000e+00  -1.750000e+00  0  3111 0  3.060440e+00 -3.766564e-01 2.441341e+00   -8.829567e-02 -4.157846e-01 7.689082e-01 2.000000e-01  6.250000e-02  
-2.000000e+00  -1.000000e+00  -1.750000e+00  0  3110 0  -1.127173e+00 -4.128891e+00 4.356639e+00   3.789781e-02 3.349812e-01 -1.217268e-02 2.000000e-01  6.250000e-02  
-1.500000e+00  -1.000000e+00  -2.000000e+00  0  3024 0  1.988410e+00 4.476658e+00 -1.570348e-06   -4.566986e-06 -5.087964e-06 -7.651746e-01 2.000000e-01  6.250000e-02  
-1.500000e+00  -1.000000e+00  -1.750000e+00  0  3112 0  -6.585865e+00 -2.314579e+00 -8.250795e+00   -5.087424e-01 -5.214548e-01 -1.537534e+00 2.000000e-01  6.250000e-02  
-1.250000e+00  -1.000000e+00  -2.000000e+00  0  3787 0  1.404113e+00 -3.559729e-01 4.668268e-06   -2.146571e-06 -3.295769e-06 -3.810615e-02 2.000000e-01  6.250000e-02  
-1.250000e+00  -1.000000e+00  -1.750000e+00  0  3851 0  -4.390320e+00 -3.911216e+00 -8.555871e-01   -7.673202e-01 -4.292050e-01 -1.764864e-01 2.000000e-01  6.250000e-02  
-1.000000e+00  -1.000000e+00  -2.000000e+00  0  3788 0  4.733532e+00 4.733533e+00 3.459786e-06   -5.131499e-07 4.867170e-07 5.571319e-08 2.000000e-01  6.250000e-02  
-1.000000e+00  -1.000000e+00  -1.750000e+00  0  3852 0  -1.810980e+00 -1.810979e+00 -6.234853e-01   -2.501652e-01 2.501645e-01 -1.822146e-07 2.000000e-01  6.250000e-02  
-7.500000e-01  -1.000000e+00  -2.000000e+00  0  3789 0  7.095829e+00 -5.058032e-01 3.198405e-06   -4.594293e-07 1.603883e-06 -2.550379e+00 2.000000e-01  6.250000e-02  
-7.500000e-01  -1.000000e+00  -1.750000e+00  0  3853 0  2.683751e+00 -1.196216e+00 2.485303e+00   5.237030e-01 2.902667e+00 -2.653756e+00 2.000000e-01  6.250000e-02  
-5.000000e-01  -1.000000e+00  -2.000000e+00  0  3790 0  4.500573e+00 -3.267851e+00 7.157640e-07   -7.670302e-07 2.900308e-08 -1.382100e+00 2.000000e-01  6.250000e-02  
-5.000000e-01  -1.000000e+00  -1.750000e+00  0  3854 0  1.071176e+00 5.292619e+00 9.180088e-02   7.288498e-01 1.994222e+00 -9.611003e-01 2.000000e-01  6.250000e-02  
-2.500000e-01  -1.000000e+00  -2.000000e+00  0  3791 0  1.197294e+01 -3.024423e+00 -7.575487e-07   -4.381244e-07 6.238290e-08 1.135024e+00 2.000000e-01  6.250000e-02  
-2.500000e-01  -1.000000e+00  -1.750000e+00  0  3855 0  7.521932e+00 4.734236e+00 -3.865305e-01   1.612699e+00 8.211404e-01 5.204540e-01 2.000000e-01  6.250000e-02  
0.000000e+00  -1.000000e+00  -2.000000e+00  0  3792 0  3.119108e+00 1.296725e+01 5.046700e-08   -2.958574e-07 1.345221e-07 1.664864e-01 2.000000e-01  6.250000e-02  
0.000000e+00  -1.000000e+00  -1.750000e+00  0  3856 0  -7.867627e-02 -4.879199e+00 -4.195304e+00   2.525061e+00 9.958424e-02 9.018285e-02 2.000000e-01  6.250000e-02  
-1.750000e+00  -7.500000e-01  -2.000000e+00  0  3034 0  1.075075e+01 6.744741e+00 1.606201e-05   -8.286846e-06 2.730751e-06 1.343080e-01 2.000000e-01  6.250000e-02  
-2.000000e+00  -7.500000e-01  -2.000000e+00  0  3033 0  2.038258e+00 -7.802686e+00 3.242444e-05   -4.293375e-06 -9.826215e-07 2.250209e-02 2.000000e-01  6.250000e-02  
-1.750000e+00  -7.500000e-01  -1.750000e+00  0  3122 0  -2.203707e+00 -7.606138e+00 -2.951429e+00   -4.034029e-01 -6.426793e-01 3.629917e-01 2.000000e-01  6.250000e-02  
-2.000000e+00  -7.500000e-01  -1.750000e+00  0  3121 0  -1.219362e+00 7.750972e+00 9.708193e+00   -1.183616e-01 -1.060111e-01 2.735108e-01 2.000000e-01  6.250000e-02  
-1.500000e+00  -7.500000e-01  -2.000000e+00  0  3035 0  6.696487e+00 4.580344e+00 -1.017301e-05   -5.316400e-06 -8.916722e-07 -2.544847e+00 2.000000e-01  6.250000e-02  
-1.500000e+00  -7.500000e-01  -1.750000e+00  0  3123 0  1.916161e+00 6.604900e+00 4.162483e+00   -9.200845e-01 8.699683e-01 -2.708926e+00 2.000000e-01  6.250000e-02  
-1.250000e+00  -7.500000e-01  -2.000000e+00  0  3795 0  -7.875867e+00 5.596321e-02 6.798181e-06   -1.606162e-06 -2.363042e-06 -1.645727e+00 2.000000e-01  6.250000e-02  
-1.250000e+00  -7.500000e-01  -1.750000e+00  0  3859 0  1.073434e+00 1.032961e+00 -4.793169e-02   -2.086251e+00 -2.919418e-01 -6.748613e-01 2.000000e-01  6.250000e-02  
-1.000000e+00  -7.500000e-01  -2.000000e+00  0  3796 0  -5.058024e-01 7.095829e+00 3.279538e-06   -1.605159e-06 4.386626e-07 2.550380e+00 2.000000e-01  6.250000e-02  
-1.000000e+00  -7.500000e-01  -1.750000e+00  0  3860 0  -1.196220e+00 2.683752e+00 2.485303e+00   -2.902666e+00 -5.237031e-01 2.653757e+00 2.000000e-01  6.250000e-02  
-7.500000e-01  -7.500000e-01  -2.000000e+00  0  3797 0  -2.403118e+00 -2.403116e+00 -1.288878e-06   -5.607737e-07 5.469893e-07 2.470486e-08 2.000000e-01  6.250000e-02  
-7.500000e-01  -7.500000e-01  -1.750000e+00  0  3861 0  -6.009263e+00 -6.009262e+00 -1.543276e+00   -1.754888e+00 1.754888e+00 2.327723e-07 2.000000e-01  6.250000e-02  
-5.000000e-01  -7.500000e-01  -2.000000e+00  0  3798 0  4.174716e+00 -2.568303e-01 2.585586e-07   9.879200e-08 -8.718267e-07 -6.419714e-01 2.000000e-01  6.250000e-02  
-5.000000e-01  -7.500000e-01  -1.750000e+00  0  3862 0  2.700320e-01 -4.285538e+00 -9.620128e-01   -6.428954e-01 1.513938e+00 -6.486674e-01 2.000000e-01  6.250000e-02  
-2.500000e-01  -7.500000e-01  -2.000000e+00  0  3799 0  -1.019885e+01 3.336205e+00 -4.888221e-07   1.085654e-08 -6.393330e-07 1.102542e-01 2.000000e-01  6.250000e-02  
-2.500000e-01  -7.500000e-01  -1.750000e+00  0  3863 0  2.563538e+00 3.177846e+00 -9.477196e-01   1.026075e+00 -1.426575e-01 -7.982147e-01 2.000000e-01  6.250000e-02  
0.000000e+00  -7.500000e-01  -2.000000e+00  0  3800 0  8.608756e-01 -1.255992e+00 8.299802e-07   -5.448652e-08 -1.187962e-07 -3.242839e-01 2.000000e-01  6.250000e-02  
0.000000e+00  -7.500000e-01  -1.750000e+00  0  3864 0  8.161064e-01 -4.428116e-02 -4.709379e+00   2.544713e+00 1.097354e-01 -2.022931e-01 2.000000e-01  6.250000e-02  
-1.750000e+00  -5.000000e-01  -2.000000e+00  0  3045 0  -1.223029e+00 2.104887e+00 -2.211377e-05   -1.122196e-05 3.016389e-06 -1.261596e+00 2.000000e-01  6.250000e-02  
-2.000000e+00  -5.000000e-01  -2.000000e+00  0  3044 0  -6.317403e+00 -2.764203e-01 9.725221e-06   -5.547867e-06 5.671030e-07 -4.876226e-01 2.000000e-01  6.250000e-02  
-1.750000e+00  -5.000000e-01  -1.750000e+00  0  3133 0  -2.324246e+00 2.111148e+00 -3.907985e+00   1.112164e-01 -5.509376e-01 -8.525519e-01 2.000000e-01  6.250000e-02  
-2.000000e+00  -5.000000e-01  -1.750000e+00  0  3132 0  1.884442e+00 -1.193031e+00 3.979973e+00   7.529412e-01 -4.157729e-01 -2.315645e-01 2.000000e-01  6.250000e-02  
-1.500000e+00  -5.000000e-01  -2.000000e+00  0  3046 0  1.555195e+00 5.978338e+00 -2.372569e-05   -7.670601e-06 1.401735e-06 -1.171785e+00 2.000000e-01  6.250000e-02  
-1.500000e+00  -5.000000e-01  -1.750000e+00  0  3134 0  -6.347508e+00 -1.770254e+00 5.997448e+00   2.765444e-01 1.630152e-01 -6.788785e-01 2.000000e-01  6.250000e-02  
-1.250000e+00  -5.000000e-01  -2.000000e+00  0  3803 0  5.385875e+00 -6.938151e+00 -6.328256e-06   -2.020047e-06 -6.871810e-07 -1.225487e+00 2.000000e-01  6.250000e-02  
-1.250000e+00  -5.000000e-01  -1.750000e+00  0  3867 0  4.247475e-01 3.220386e-01 -4.890586e+00   -7.562901e-01 3.341791e-01 -2.453605e-01 2.000000e-01  6.250000e-02  
-1.000000e+00  -5.000000e-01  -2.000000e+00  0  3804 0  -3.267848e+00 4.500574e+00 8.353488e-07   -3.487272e-08 7.721841e-07 1.382099e+00 2.000000e-01  6.250000e-02  
-1.000000e+00  -5.000000e-01  -1.750000e+00  0  3868 0  5.292621e+00 1.071177e+00 9.180266e-02   -1.994223e+00 -7.288502e-01 9.611000e-01 2.000000e-01  6.250000e-02  
-7.500000e-01  -5.000000e-01  -2.000000e+00  0  3805 0  -2.568298e-01 4.174717e+00 2.515254e-07   8.675634e-07 -1.113637e-07 6.419714e-01 2.000000e-01  6.250000e-02  
-7.500000e-01  -5.000000e-01  -1.750000e+00  0  3869 0  -4.285536e+00 2.700327e-01 -9.620135e-01   -1.513938e+00 6.428953e-01 6.486673e-01 2.000000e-01  6.250000e-02  
-5.000000e-01  -5.000000e-01  -2.000000e+00  0  3806 0  -8.937816e+00 -8.937817e+00 -5.515776e-07   3.860782e-07 -3.835916e-07 -2.509337e-07 2.000000e-01  6.250000e-02  
-5.000000e-01  -5.000000e-01  -1.750000e+00  0  3870 0  -2.035300e+00 -2.035301e+00 7.712829e+00   -1.450288e+00 1.450288e+00 -1.860988e-07 2.000000e-01  6.250000e-02  
-2.500000e-01  -5.000000e-01  -2.000000e+00  0  3807 0  1.418025e+00 1.164138e+00 3.457712e-07   -5.582833e-08 -2.496132e-07 4.680987e-01 2.000000e-01  6.250000e-02  
-2.500000e-01  -5.000000e-01  -1.750000e+00  0  3871 0  5.849544e+00 2.136980e+00 1.443859e+00   -7.227385e-01 -7.077488e-01 -3.845164e-01 2.000000e-01  6.250000e-02  
0.000000e+00  -5.000000e-01  -2.000000e+00  0  3808 0  -1.478453e+00 -7.064996e+00 -7.527346e-07   -2.187244e-07 -2.829461e-08 3.817382e-02 2.000000e-01  6.250000e-02  
0.000000e+00  -5.000000e-01  -1.750000e+00  0  3872 0  -8.254004e-02 -1.764455e+00 1.206118e+00   5.067190e-02 -3.438156e-02 9.442662e-02 2.000000e-01  6.250000e-02  
-1.750000e+00  -2.500000e-01  -2.000000e+00  0  3056 0  2.109450e+00 -4.561618e+00 -1.330400e-06   -3.962876e-06 3.998730e-07 1.936169e-02 2.000000e-01  6.250000e-02  
-2.000000e+00  -2.500000e-01  -2.000000e+00  0  3055 0  1.235697e+00 8.145031e+00 -2.406686e-06   -2.410129e-06 1.048236e-06 2.308913e-01 2.000000e-01  6.250000e-02  
-1.750000e+00  -2.500000e-01  -1.750000e+00  0  3144 0  -4.761503e+00 2.092969e+00 -6.462688e+00   6.654130e-01 -3.148375e-01 -9.853755e-01 2.000000e-01  6.250000e-02  
-2.000000e+00  -2.500000e-01  -1.750000e+00  0  3143 0  1.277748e+00 -3.573943e+00 8.129545e-01   -1.624773e-01 -2.653887e-01 -2.113829e-03 2.000000e-01  6.250000e-02  
-1.500000e+00  -2.500000e-01  -2.000000e+00  0  3057 0  -1.614721e+00 8.378306e+00 4.636706e-07   -1.955225e-06 -7.621260e-07 -1.381134e-02 2.000000e-01  6.250000e-02  
-1.500000e+00  -2.500000e-01  -1.750000e+00  0  3145 0  -4.880833e+00 3.808467e+00 5.285911e+00   8.424635e-01 -2.259813e-01 -1.005078e-01 2.000000e-01  6.250000e-02  
-1.250000e+00  -2.500000e-01  -2.000000e+00  0  3811 0  1.665083e+00 9.436070e-01 -2.331631e-07   -5.073762e-07 -3.676910e-07 -1.094849e+00 2.000000e-01  6.250000e-02  
-1.250000e+00  -2.500000e-01  -1.750000e+00  0  3875 0  -1.534805e+00 -4.470995e-01 -4.477603e+00   -4.456360e-01 8.575908e-01 -2.946722e-01 2.000000e-01  6.250000e-02  
-1.000000e+00  -2.500000e-01  -2.000000e+00  0  3812 0  -3.024420e+00 1.197294e+01 -7.563246e-07   -8.173247e-08 4.555230e-07 -1.135025e+00 2.000000e-01  6.250000e-02  
-1.000000e+00  -2.500000e-01  -1.750000e+00  0  3876 0  4.734235e+00 7.521933e+00 -3.865327e-01   -8.211413e-01 -1.612701e+00 -5.204543e-01 2.000000e-01  6.250000e-02  
-7.500000e-01  -2.500000e-01  -2.000000e+00  0  3813 0  3.336207e+00 -1.019885e+01 -4.724306e-07   6.426294e-07 -1.541443e-08 -1.102542e-01 2.000000e-01  6.250000e-02  
-7.500000e-01  -2.500000e-01  -1.750000e+00  0  3877 0  3.177849e+00 2.563532e+00 -9.477199e-01   1.426573e-01 -1.026075e+00 7.982146e-01 2.000000e-01  6.250000e-02  
-5.000000e-01  -2.500000e-01  -2.000000e+00  0  3814 0  1.164138e+00 1.418029e+00 3.448251e-07   2.488925e-07 5.626870e-08 -4.680992e-01 2.000000e-01  6.250000e-02  
-5.000000e-01  -2.500000e-01  -1.750000e+00  0  3878 0  2.136979e+00 5.849545e+00 1.443859e+00   7.077487e-01 7.227384e-01 3.845160e-01 2.000000e-01  6.250000e-02  
-2.500000e-01  -2.500000e-01  -2.000000e+00  0  3815 0  -1.466037e+00 -1.466037e+00 -1.176340e-06   -1.018285e-07 1.013325e-07 1.257980e-07 2.000000e-01  6.250000e-02  
-2.500000e-01  -2.500000e-01  -1.750000e+00  0  3879 0  3.746204e+00 3.746204e+00 4.931016e+00   2.340548e-01 -2.340548e-01 7.635076e-08 2.000000e-01  6.250000e-02  
0.000000e+00  -2.500000e-01  -2.000000e+00  0  3816 0  -4.366104e-01 -2.582140e+00 2.062319e-07   8.587033e-09 7.928825e-08 1.446835e-01 2.000000e-01  6.250000e-02  
0.000000e+00  -2.500000e-01  -1.750000e+00  0  3880 0  3.425642e-01 -1.213670e-01 -5.210537e+00   -5.562394e-03 -1.804725e-01 7.964917e-02 2.000000e-01  6.250000e-02  
-1.750000e+00  0.000000e+00  -2.000000e+00  0  3067 0  -4.245070e+00 9.080475e-01 -1.298204e-05   1.212971e-06 -1.388282e-06 6.280821e-01 2.000000e-01  6.250000e-02  
-2.000000e+00  0.000000e+00  -2.000000e+00  0  3066 0  6.091249e-05 -8.093005e-05 4.244281e-07   -1.569294e-08 9.600601e-09 6.646363e-01 2.000000e-01  6.250000e-02  
-1.750000e+00  0.000000e+00  -1.750000e+00  0  3155 0  4.366558e+00 -1.860136e+00 4.950561e+00   2.369157e-01 6.215483e-02 3.507117e-01 2.000000e-01  6.250000e-02  
-2.000000e+00  0.000000e+00  -1.750000e+00  0  3154 0  -2.079285e-05 1.223769e-05 -4.960334e+00   7.808031e-06 -1.082027e-05 4.725838e-01 2.000000e-01  6.250000e-02  
-1.500000e+00  0.000000e+00  -2.000000e+00  0  3068 0  8.139959e-02 8.686834e-01 3.311886e-06   1.702081e-06 -1.422786e-06 3.965178e-01 2.000000e-01  6.250000e-02  
-1.500000e+00  0.000000e+00  -1.750000e+00  0  3156 0  -1.983442e-01 -1.935108e+00 3.562983e+00   1.149653e-01 7.643573e-01 3.428907e-01 2.000000e-01  6.250000e-02  
-1.250000e+00  0.000000e+00  -2.000000e+00  0  3819 0  -1.091288e+01 6.847629e-03 -2.021925e-06   4.557951e-07 3.229874e-07 -2.835086e-01 2.000000e-01  6.250000e-02  
-1.250000e+00  0.000000e+00  -1.750000e+00  0  3883 0  -7.586604e+00 1.130366e+00 1.878433e+00   -7.176365e-02 4.775008e-01 -7.878245e-02 2.000000e-01  6.250000e-02  
-1.000000e+00  0.000000e+00  -2.000000e+00  0  3820 0  1.296725e+01 3.119109e+00 2.378707e-08   -1.748348e-07 3.089639e-07 -1.664864e-01 2.000000e-01  6.250000e-02  
-1.000000e+00  0.000000e+00  -1.750000e+00  0  3884 0  -4.879203e+00 -7.867425e-02 -4.195303e+00   -9.958399e-02 -2.525063e+00 -9.018286e-02 2.000000e-01  6.250000e-02  
-7.500000e-01  0.000000e+00  -2.000000e+00  0  3821 0  -1.255993e+00 8.608756e-01 8.415699e-07   1.131679e-07 5.730225e-08 3.242841e-01 2.000000e-01  6.250000e-02  
-7.500000e-01  0.000000e+00  -1.750000e+00  0  3885 0  -4.427906e-02 8.161047e-01 -4.709379e+00   -1.097358e-01 -2.544713e+00 2.022931e-01 2.000000e-01  6.250000e-02  
-5.000000e-01  0.000000e+00  -2.000000e+00  0  3822 0  -7.064998e+00 -1.478454e+00 -7.431917e-07   2.701198e-08 2.183372e-07 -3.817431e-02 2.000000e-01  6.250000e-02  
-5.000000e-01  0.000000e+00  -1.750000e+00  0  3886 0  -1.764456e+00 -8.253926e-02 1.206118e+00   3.438120e-02 -5.067206e-02 -9.442699e-02 2.000000e-01  6.250000e-02  
-2.500000e-01  0.000000e+00  -2.000000e+00  0  3823 0  -2.582140e+00 -4.366101e-01 2.079147e-07   -8.046255e-08 -9.947049e-09 -1.446834e-01 2.000000e-01  6.250000e-02  
-2.500000e-01  0.000000e+00  -1.750000e+00  0  3887 0  -1.213670e-01 3.425640e-01 -5.210537e+00   1.804722e-01 5.562298e-03 -7.964910e-02 2.000000e-01  6.250000e-02  
0.000000e+00  0.000000e+00  -2.000000e+00  0  3824 0  1.707307e-06 1.266646e-06 -1.536115e-06   -2.453966e-09 6.052140e-10 2.370709e-08 2.000000e-01  6.250000e-02  
0.000000e+00  0.000000e+00  -1.750000e+00  0  3888 0  -2.666071e-07 -1.592712e-07 -1.078329e+00   3.203596e-07 -4.617524e-07 1.986759e-08 2.000000e-01  6.250000e-02  
-2.000000e+00  -2.000000e+00  -1.500000e+00  0  1306 0  -5.799064e-06 -1.153891e-05 8.165325e+00   -1.505580e-05 2.382255e-05 -7.349536e-09 2.000000e-01  6.250000e-02  
-1.750000e+00  -2.000000e+00  -1.500000e+00  0  1307 0  2.790862e+00 8.285827e-01 3.711375e+00   5.007869e-02 -1.573873e+00 -6.336481e-01 2.000000e-01  6.250000e-02  
-1.750000e+00  -1.750000e+00  -1.500000e+00  0  1318 0  -1.392233e+00 -1.392231e+00 1.180326e+00   1.293524e+00 -1.293519e+00 -2.614443e-06 2.000000e-01  6.250000e-02  
-2.000000e+00  -1.750000e+00  -1.500000e+00  0  1317 0  8.285898e-01 2.790846e+00 3.711372e+00   1.573876e+00 -5.007303e-02 6.336448e-01 2.000000e-01  6.250000e-02  
-1.500000e+00  -2.000000e+00  -1.500000e+00  0  1308 0  -6.620517e+00 3.392645e+00 -8.028115e+00   -1.244628e-01 2.132876e-01 -3.705881e-01 2.000000e-01  6.250000e-02  
-1.500000e+00  -1.750000e+00  -1.500000e+00  0  1319 0  -4.984388e+00 -5.267185e-01 -2.853283e+00   1.175227e-01 7.761148e-01 -4.281820e-01 2.000000e-01  6.250000e-02  
-1.250000e+00  -2.000000e+00  -1.500000e+00  0  2275 0  -2.125227e+00 -3.642087e-01 2.900394e-01   -4.500625e-01 3.455776e-01 1.409031e-01 2.000000e-01  6.250000e-02  
-1.250000e+00  -1.750000e+00  -1.500000e+00  0  2283 0  3.545873e+00 -2.943237e-01 -1.928942e+00   -6.637566e-01 8.507021e-01 -1.069795e+00 2.000000e-01  6.250000e-02  
-1.000000e+00  -2.000000e+00  -1.500000e+00  0  2276 0  9.044177e+00 -3.271736e-02 3.523552e+00   -1.869257e-01 -1.262897e+00 -7.472049e-03 2.000000e-01  6.250000e-02  
-1.000000e+00  -1.750000e+00  -1.500000e+00  0  2284 0  -1.688799e+00 1.636298e+00 -1.087142e+00   1.415565e-01 -2.394403e+00 -1.260116e+00 2.000000e-01  6.250000e-02  
-7.500000e-01  -2.000000e+00  -1.500000e+00  0  2277 0  3.885320e+00 4.961135e-01 4.043164e+00   -1.241935e-01 -2.967205e+00 -1.654943e-01 2.000000e-01  6.250000e-02  
-7.500000e-01  -1.750000e+00  -1.500000e+00  0  2285 0  7.627292e+00 3.071700e+00 9.458567e-01   8.732135e-01 -3.367976e+00 -3.013938e-01 2.000000e-01  6.250000e-02  
-5.000000e-01  -2.000000e+00  -1.500000e+00  0  2278 0  3.432352e+00 4.987372e-01 2.739272e+00   -3.150575e-01 -1.632333e+00 -3.036288e-01 2.000000e-01  6.250000e-02  
-5.000000e-01  -1.750000e+00  -1.500000e+00  0  2286 0  -5.747294e+00 5.225168e+00 -5.276877e+00   -1.450257e-01 -7.021364e-01 7.530198e-01 2.000000e-01  6.250000e-02  
-2.500000e-01  -2.000000e+00  -1.500000e+00  0  2279 0  8.486298e+00 -6.761331e-01 -1.307193e+00   -8.534486e-02 4.845464e-01 -5.494131e-02 2.000000e-01  6.250000e-02  