VARIABLES="X", "Y", "Z", "Maximum Refinment Level", "Temp_ID", "Thread","Ex (corner node)","Ey (corner node)","Ez (corner node)","Bx (center node)","By (center node)","Bz (center node)", "Local Time Step" , "log10(Local Particle Weight)" 
ZONE N=4913, E=4096, DATAPACKING=POINT, ZONETYPE=FEBRICK
-2.000000e+00  -2.000000e+00  -2.000000e+00  0  1064 0  -2.135058e-05 -1.548176e-05 -1.656291e-05   2.034161e-10 2.143128e-11 -6.979090e-10 2.000000e-01  6.250000e-02  
-1.750000e+00  -2.000000e+00  -2.000000e+00  0  1065 0  1.018184e+01 3.193444e-06 2.872273e-06   -1.662585e-09 -1.735263e-06 1.732076e-06 2.000000e-01  6.250000e-02  
-1.750000e+00  -1.750000e+00  -2.000000e+00  0  1076 0  -3.341276e-01 -3.341227e-01 -2.005890e-05   9.134996e-07 -8.961426e-07 -2.382755e-07 2.000000e-01  6.250000e-02  
-2.000000e+00  -1.750000e+00  -2.000000e+00  0  1075 0  3.653114e-06 1.018185e+01 2.751915e-06   1.703053e-06 -6.319519e-10 -2.297434e-06 2.000000e-01  6.250000e-02  
-2.000000e+00  -2.000000e+00  -1.750000e+00  0  1185 0  3.829633e-06 3.114107e-06 1.018185e+01   -1.723454e-06 2.322764e-06 1.252177e-08 2.000000e-01  6.250000e-02  
-1.750000e+00  -2.000000e+00  -1.750000e+00  0  1186 0  -3.341269e-01 -2.034725e-05 -3.341228e-01   -9.010238e-07 2.146419e-07 9.003435e-07 2.000000e-01  6.250000e-02  
-1.750000e+00  -1.750000e+00  -1.750000e+00  0  1197 0  1.643177e+00 1.643179e+00 1.643179e+00   3.378994e-08 1.567921e-07 -1.938559e-07 2.000000e-01  6.250000e-02  
-2.000000e+00  -1.750000e+00  -1.750000e+00  0  1196 0  -2.629312e-05 -3.341243e-01 -3.341252e-01   3.241824e-08 1.210652e-06 -1.224229e-06 2.000000e-01  6.250000e-02  
-1.500000e+00  -2.000000e+00  -2.000000e+00  0  1066 0  -8.860863e+00 -1.116155e-05 -1.161825e-05   -2.087107e-09 -1.625196e-06 1.565021e-06 2.000000e-01  6.250000e-02  
-1.500000e+00  -1.750000e+00  -2.000000e+00  0  1077 0  1.519629e+01 -5.917860e+00 -1.871361e-06   -3.687214e-07 3.421264e-08 -1.647542e+00 2.000000e-01  6.250000e-02  
-1.500000e+00  -2.000000e+00  -1.750000e+00  0  1187 0  1.519629e+01 -1.851330e-06 -5.917860e+00   3.617483e-07 1.647542e+00 -7.012614e-08 2.000000e-01  6.250000e-02  
-1.500000e+00  -1.750000e+00  -1.750000e+00  0  1198 0  9.612079e-01 -1.626666e+01 -1.626666e+01   -6.933150e-09 2.103217e+00 -2.103217e+00 2.000000e-01  6.250000e-02  
-1.250000e+00  -2.000000e+00  -2.000000e+00  0  2099 0  -2.694823e+01 -6.566656e-06 -6.967259e-06   -1.235215e-10 -1.375986e-06 1.312485e-06 2.000000e-01  6.250000e-02  
-1.250000e+00  -1.750000e+00  -2.000000e+00  0  2107 0  5.823758e+00 4.798411e-01 4.363570e-07   -7.015972e-07 -8.831058e-07 -1.121457e-01 2.000000e-01  6.250000e-02  
-1.250000e+00  -2.000000e+00  -1.750000e+00  0  2187 0  5.823758e+00 5.045543e-07 4.798408e-01   6.412124e-07 1.121457e-01 8.442051e-07 2.000000e-01  6.250000e-02  
-1.250000e+00  -1.750000e+00  -1.750000e+00  0  2195 0  3.261578e+00 -1.479632e+01 -1.479632e+01   -4.871558e-08 -7.847242e-01 7.847242e-01 2.000000e-01  6.250000e-02  
-1.000000e+00  -2.000000e+00  -2.000000e+00  0  2100 0  3.900632e+00 -6.667028e-06 -7.149594e-06   -3.396278e-10 7.284016e-08 -4.062117e-08 2.000000e-01  6.250000e-02  
-1.000000e+00  -1.750000e+00  -2.000000e+00  0  2108 0  1.692472e+01 -1.503058e+01 -1.147650e-06   -5.433457e-07 -8.246997e-08 2.099067e+00 2.000000e-01  6.250000e-02  
-1.000000e+00  -2.000000e+00  -1.750000e+00  0  2188 0  1.692472e+01 -1.137613e-06 -1.503058e+01   4.843861e-07 -2.099067e+00 9.342987e-08 2.000000e-01  6.250000e-02  
-1.000000e+00  -1.750000e+00  -1.750000e+00  0  2196 0  8.244600e+00 -4.281531e+00 -4.281531e+00   -4.002656e-08 -1.749940e+00 1.749940e+00 2.000000e-01  6.250000e-02  
-7.500000e-01  -2.000000e+00  -2.000000e+00  0  2101 0  -1.931975e+01 -2.237305e-07 -1.963923e-07   -6.123680e-10 -4.705062e-08 7.376891e-08 2.000000e-01  6.250000e-02  
-7.500000e-01  -1.750000e+00  -2.000000e+00  0  2109 0  -3.975957e+00 -1.816197e+01 -7.525520e-07   -3.696289e-07 -4.220369e-08 1.615961e+00 2.000000e-01  6.250000e-02  
-7.500000e-01  -2.000000e+00  -1.750000e+00  0  2189 0  -3.975957e+00 -6.515753e-07 -1.816197e+01   3.540032e-07 -1.615961e+00 5.537642e-08 2.000000e-01  6.250000e-02  
-7.500000e-01  -1.750000e+00  -1.750000e+00  0  2197 0  -1.818797e+01 -4.426280e+00 -4.426280e+00   -1.151049e-08 -1.001605e+00 1.001605e+00 2.000000e-01  6.250000e-02  
-5.000000e-01  -2.000000e+00  -2.000000e+00  0  2102 0  -1.470717e+01 -1.470840e-06 -1.382685e-06   -3.495599e-10 -5.221376e-08 3.400863e-08 2.000000e-01  6.250000e-02  
-5.000000e-01  -1.750000e+00  -2.000000e+00  0  2110 0  -4.206524e+00 -3.391849e+00 -1.708091e-06   -2.082968e-07 3.156652e-09 8.041651e-01 2.000000e-01  6.250000e-02  
-5.000000e-01  -2.000000e+00  -1.750000e+00  0  2190 0  -4.206524e+00 -1.748155e-06 -3.391849e+00   2.133867e-07 -8.041651e-01 -1.160020e-08 2.000000e-01  6.250000e-02  
-5.000000e-01  -1.750000e+00  -1.750000e+00  0  2198 0  -2.350759e+00 -1.516257e+01 -1.516257e+01   2.270482e-09 -7.102943e-01 7.102943e-01 2.000000e-01  6.250000e-02  
-2.500000e-01  -2.000000e+00  -2.000000e+00  0  2103 0  3.891986e+00 -1.062263e-06 -1.071697e-06   2.117434e-10 5.202109e-08 -6.031105e-08 2.000000e-01  6.250000e-02  
-2.500000e-01  -1.750000e+00  -2.000000e+00  0  2111 0  -1.284920e-01 -1.724758e+01 2.592915e-07   -1.237050e-07 3.539977e-08 3.121940e-01 2.000000e-01  6.250000e-02  
-2.500000e-01  -2.000000e+00  -1.750000e+00  0  2191 0  -1.284920e-01 2.607809e-07 -1.724758e+01   1.266576e-07 -3.121940e-01 -4.072622e-08 2.000000e-01  6.250000e-02  
-2.500000e-01  -1.750000e+00  -1.750000e+00  0  2199 0  2.098704e+01 -2.329178e-01 -2.329178e-01   6.150843e-10 -3.877690e-01 3.877690e-01 2.000000e-01  6.250000e-02  
0.000000e+00  -2.000000e+00  -2.000000e+00  0  2104 0  -2.923014e-06 -1.532503e-06 -1.557217e-06   3.189394e-10 -2.865265e-09 2.364277e-09 2.000000e-01  6.250000e-02  
0.000000e+00  -1.750000e+00  -2.000000e+00  0  2112 0  1.951291e-06 -2.319753e+00 1.131106e-07   -6.600927e-08 -1.037161e-09 -8.610714e-07 2.000000e-01  6.250000e-02  
0.000000e+00  -2.000000e+00  -1.750000e+00  0  2192 0  1.946707e-06 1.036760e-07 -2.319753e+00   6.604725e-08 8.600075e-07 1.069943e-09 2.000000e-01  6.250000e-02  
0.000000e+00  -1.750000e+00  -1.750000e+00  0  2200 0  -5.516924e-06 -1.764734e+01 -1.764734e+01   -6.938756e-10 6.653578e-07 -6.657428e-07 2.000000e-01  6.250000e-02  
-1.750000e+00  -1.500000e+00  -2.000000e+00  0  1087 0  -5.917862e+00 1.519629e+01 -1.963917e-06   -3.630894e-08 3.846559e-07 1.647542e+00 2.000000e-01  6.250000e-02  
-2.000000e+00  -1.500000e+00  -2.000000e+00  0  1086 0  -1.517445e-05 -8.860869e+00 -1.164873e-05   1.615010e-06 -7.039016e-10 -2.096095e-06 2.000000e-01  6.250000e-02  
-1.750000e+00  -1.500000e+00  -1.750000e+00  0  1208 0  -1.626667e+01 9.612058e-01 -1.626667e+01   -2.103217e+00 -4.065693e-08 2.103217e+00 2.000000e-01  6.250000e-02  
-2.000000e+00  -1.500000e+00  -1.750000e+00  0  1207 0  -2.473446e-06 1.519629e+01 -5.917859e+00   -1.647542e+00 -4.774543e-07 5.194433e-08 2.000000e-01  6.250000e-02  
-1.500000e+00  -1.500000e+00  -2.000000e+00  0  1088 0  2.292435e+00 2.292435e+00 -3.359865e-07   -8.152243e-07 8.248526e-07 -6.078976e-08 2.000000e-01  6.250000e-02  
-1.500000e+00  -1.500000e+00  -1.750000e+00  0  1209 0  5.873099e+00 5.873099e+00 -1.848965e+01   -2.169619e+00 2.169619e+00 -9.791291e-08 2.000000e-01  6.250000e-02  
-1.250000e+00  -1.500000e+00  -2.000000e+00  0  2115 0  -6.933286e+00 5.954008e+00 -1.838624e-06   8.897913e-08 -3.014456e-07 -8.810854e-01 2.000000e-01  6.250000e-02  
-1.250000e+00  -1.500000e+00  -1.750000e+00  0  2203 0  -2.896824e+00 1.006052e+01 -1.320086e+01   -1.745500e+00 -1.292825e+00 -1.304701e+00 2.000000e-01  6.250000e-02  
-1.000000e+00  -1.500000e+00  -2.000000e+00  0  2116 0  4.350977e+00 1.328762e+01 -1.084287e-07   3.123970e-08 -2.505754e-07 9.878881e-01 2.000000e-01  6.250000e-02  
-1.000000e+00  -1.500000e+00  -1.750000e+00  0  2204 0  2.281370e-01 9.479588e+00 -4.056759e+00   -7.960006e-01 -1.283463e+00 -4.411469e-02 2.000000e-01  6.250000e-02  
-7.500000e-01  -1.500000e+00  -2.000000e+00  0  2117 0  -6.452034e+00 2.655320e+00 2.618991e-07   -2.338087e-08 2.200683e-09 -1.766328e-01 2.000000e-01  6.250000e-02  
-7.500000e-01  -1.500000e+00  -1.750000e+00  0  2205 0  -1.451409e+01 2.148396e+01 -1.068423e+01   -1.745700e-01 -7.228571e-01 4.521981e-01 2.000000e-01  6.250000e-02  
-5.000000e-01  -1.500000e+00  -2.000000e+00  0  2118 0  -4.334517e+00 9.872007e+00 4.738849e-07   -1.106004e-09 2.583470e-08 -9.444691e-01 2.000000e-01  6.250000e-02  
-5.000000e-01  -1.500000e+00  -1.750000e+00  0  2206 0  4.201673e+00 2.171561e+01 -1.287935e+01   -6.069303e-01 -7.124290e-01 -7.093264e-01 2.000000e-01  6.250000e-02  
-2.500000e-01  -1.500000e+00  -2.000000e+00  0  2119 0  1.030710e+00 7.617637e+00 -1.443686e-07   -3.127965e-08 1.647126e-08 -7.788971e-01 2.000000e-01  6.250000e-02  
-2.500000e-01  -1.500000e+00  -1.750000e+00  0  2207 0  -2.922480e+00 1.615729e+01 -4.686084e+00   -6.473490e-01 -4.559067e-01 -8.850528e-01 2.000000e-01  6.250000e-02  
0.000000e+00  -1.500000e+00  -2.000000e+00  0  2120 0  -3.057595e-07 7.656192e+00 -2.574089e-07   -4.324969e-08 3.652981e-10 -3.252095e-07 2.000000e-01  6.250000e-02  
0.000000e+00  -1.500000e+00  -1.750000e+00  0  2208 0  7.902641e-07 2.251002e+01 -1.321126e+01   -5.486305e-01 2.053623e-07 -2.417530e-07 2.000000e-01  6.250000e-02  
-1.750000e+00  -1.250000e+00  -2.000000e+00  0  3012 0  4.798384e-01 5.823759e+00 4.111433e-07   8.852260e-07 7.085767e-07 1.121467e-01 2.000000e-01  6.250000e-02  
-2.000000e+00  -1.250000e+00  -2.000000e+00  0  3011 0  -8.924799e-06 -2.694821e+01 -7.028368e-06   1.380794e-06 -2.684001e-10 -1.780097e-06 2.000000e-01  6.250000e-02  
-1.750000e+00  -1.250000e+00  -1.750000e+00  0  3100 0  -1.479633e+01 3.261577e+00 -1.479632e+01   7.847235e-01 -1.287291e-07 -7.847237e-01 2.000000e-01  6.250000e-02  
-2.000000e+00  -1.250000e+00  -1.750000e+00  0  3099 0  6.086694e-07 5.823758e+00 4.798395e-01   -1.121466e-01 -8.906924e-07 -1.142758e-06 2.000000e-01  6.250000e-02  
-1.500000e+00  -1.250000e+00  -2.000000e+00  0  3013 0  5.954008e+00 -6.933285e+00 -1.830294e-06   2.995046e-07 -7.993518e-08 8.810856e-01 2.000000e-01  6.250000e-02  
-1.500000e+00  -1.250000e+00  -1.750000e+00  0  3101 0  1.006052e+01 -2.896825e+00 -1.320086e+01   1.292825e+00 1.745500e+00 1.304701e+00 2.000000e-01  6.250000e-02  
-1.250000e+00  -1.250000e+00  -2.000000e+00  0  3779 0  -2.077860e+00 -2.077860e+00 2.110167e-07   2.568746e-07 -2.540269e-07 -3.001662e-09 2.000000e-01  6.250000e-02  
-1.250000e+00  -1.250000e+00  -1.750000e+00  0  3843 0  -4.502653e+00 -4.502653e+00 -1.139271e+01   4.393733e-01 -4.393733e-01 -2.447801e-08 2.000000e-01  6.250000e-02  
-1.000000e+00  -1.250000e+00  -2.000000e+00  0  3780 0  7.005719e+00 -9.606338e-01 -2.062403e-07   1.269892e-07 -1.764307e-07 -1.799077e+00 2.000000e-01  6.250000e-02  
-1.000000e+00  -1.250000e+00  -1.750000e+00  0  3844 0  4.690440e+00 -5.145812e+00 -1.500599e+01   3.967719e-01 -8.007024e-01 -2.586570e+00 2.000000e-01  6.250000e-02  
-7.500000e-01  -1.250000e+00  -2.000000e+00  0  3781 0  -1.424086e+01 -4.669343e+00 -1.067928e-07   -1.797917e-08 3.138361e-08 -3.799828e-01 2.000000e-01  6.250000e-02  
-7.500000e-01  -1.250000e+00  -1.750000e+00  0  3845 0  -5.304714e+00 -6.351331e+00 -1.818639e+01   7.854591e-01 -9.634993e-01 -4.415544e-01 2.000000e-01  6.250000e-02  
-5.000000e-01  -1.250000e+00  -2.000000e+00  0  3782 0  -7.984503e+00 2.548494e+00 -5.070468e-08   1.586374e-10 -7.748110e-09 1.385646e-01 2.000000e-01  6.250000e-02  
-5.000000e-01  -1.250000e+00  -1.750000e+00  0  3846 0  1.512657e+00 -7.153267e+00 -1.525589e+01   8.534360e-01 -6.408679e-01 -1.303729e-01 2.000000e-01  6.250000e-02  
-2.500000e-01  -1.250000e+00  -2.000000e+00  0  3783 0  2.507287e+00 -1.568412e+00 -1.752338e-08   -3.043681e-09 6.539411e-09 -1.612544e-01 2.000000e-01  6.250000e-02  
-2.500000e-01  -1.250000e+00  -1.750000e+00  0  3847 0  1.150864e+00 -5.978066e+00 -1.575092e+01   9.694948e-01 -3.776731e-01 -2.467386e-01 2.000000e-01  6.250000e-02  
0.000000e+00  -1.250000e+00  -2.000000e+00  0  3784 0  1.441896e-07 3.160906e+00 2.486229e-08   3.137871e-09 2.440251e-10 -1.338876e-08 2.000000e-01  6.250000e-02  
0.000000e+00  -1.250000e+00  -1.750000e+00  0  3848 0  -1.617873e-07 -8.835869e+00 -1.615309e+01   9.841828e-01 -2.484605e-08 -1.311790e-08 2.000000e-01  6.250000e-02  
-1.750000e+00  -1.000000e+00  -2.000000e+00  0  3023 0  -1.503058e+01 1.692472e+01 -1.193517e-06   7.601421e-08 5.536884e-07 -2.099066e+00 2.000000e-01  6.250000e-02  
-2.000000e+00  -1.000000e+00  -2.000000e+00  0  3022 0  -9.163140e-06 3.900633e+00 -7.268411e-06   -7.471165e-08 1.653644e-10 8.132362e-08 2.000000e-01  6.250000e-02  
-1.750000e+00  -1.000000e+00  -1.750000e+00  0  3111 0  -4.281531e+00 8.244602e+00 -4.281531e+00   1.749939e+00 -6.820488e-08 -1.749939e+00 2.000000e-01  6.250000e-02  
-2.000000e+00  -1.000000e+00  -1.750000e+00  0  3110 0  -1.540828e-06 1.692472e+01 -1.503058e+01   2.099066e+00 -6.897897e-07 -1.085124e-07 2.000000e-01  6.250000e-02  
-1.500000e+00  -1.000000e+00  -2.000000e+00  0  3024 0  1.328762e+01 4.350977e+00 -1.051103e-07   2.453203e-07 -2.732781e-08 -9.878879e-01 2.000000e-01  6.250000e-02  
-1.500000e+00  -1.000000e+00  -1.750000e+00  0  3112 0  9.479588e+00 2.281364e-01 -4.056758e+00   1.283463e+00 7.960005e-01 4.411486e-02 2.000000e-01  6.250000e-02  
-1.250000e+00  -1.000000e+00  -2.000000e+00  0  3787 0  -9.606341e-01 7.005719e+00 -2.120221e-07   1.752593e-07 -1.251595e-07 1.799077e+00 2.000000e-01  6.250000e-02  
-1.250000e+00  -1.000000e+00  -1.750000e+00  0  3851 0  -5.145812e+00 4.690441e+00 -1.500599e+01   8.007024e-01 -3.967719e-01 2.586570e+00 2.000000e-01  6.250000e-02  
-1.000000e+00  -1.000000e+00  -2.000000e+00  0  3788 0  -8.546417e+00 -8.546417e+00 -2.627937e-08   2.489062e-08 -2.410908e-08 -1.299495e-08 2.000000e-01  6.250000e-02  
-1.000000e+00  -1.000000e+00  -1.750000e+00  0  3852 0  8.213288e+00 8.213288e+00 -1.341381e+01   -7.614034e-02 7.614034e-02 -7.011738e-09 2.000000e-01  6.250000e-02  
-7.500000e-01  -1.000000e+00  -2.000000e+00  0  3789 0  9.947648e-01 5.717158e+00 -7.742602e-09   -1.884245e-08 7.036659e-10 1.356886e+00 2.000000e-01  6.250000e-02  
-7.500000e-01  -1.000000e+00  -1.750000e+00  0  3853 0  -3.690885e+00 1.594263e+01 -1.254345e+01   -1.741675e-01 -4.094781e-01 4.844264e-01 2.000000e-01  6.250000e-02  
-5.000000e-01  -1.000000e+00  -2.000000e+00  0  3790 0  -5.537639e-01 5.550191e-01 1.090633e-09   1.834177e-09 -8.214789e-09 9.852894e-01 2.000000e-01  6.250000e-02  
-5.000000e-01  -1.000000e+00  -1.750000e+00  0  3854 0  -5.235297e+00 -5.782189e+00 -1.293825e+01   5.093092e-01 -2.483054e-01 4.902207e-01 2.000000e-01  6.250000e-02  
-2.500000e-01  -1.000000e+00  -2.000000e+00  0  3791 0  -9.101530e-01 -5.012741e-01 4.482686e-09   -8.772512e-10 -5.026343e-10 -3.335171e-01 2.000000e-01  6.250000e-02  
-2.500000e-01  -1.000000e+00  -1.750000e+00  0  3855 0  7.669680e+00 4.212801e+00 -9.745599e+00   8.237322e-01 -2.187329e-01 -4.660111e-01 2.000000e-01  6.250000e-02  
0.000000e+00  -1.000000e+00  -2.000000e+00  0  3792 0  -2.117442e-09 -1.323289e+00 -7.755558e-09   -1.603386e-09 5.914086e-11 4.642174e-09 2.000000e-01  6.250000e-02  
0.000000e+00  -1.000000e+00  -1.750000e+00  0  3856 0  1.418882e-09 5.085481e+00 -1.368716e+01   8.680824e-01 6.400579e-09 2.469233e-09 2.000000e-01  6.250000e-02  
-1.750000e+00  -7.500000e-01  -2.000000e+00  0  3034 0  -1.816197e+01 -3.975958e+00 -7.068715e-07   4.600722e-08 3.762806e-07 -1.615962e+00 2.000000e-01  6.250000e-02  
-2.000000e+00  -7.500000e-01  -2.000000e+00  0  3033 0  -2.697732e-07 -1.931975e+01 -2.100993e-07   5.087195e-08 2.891193e-10 -8.235332e-08 2.000000e-01  6.250000e-02  
-1.750000e+00  -7.500000e-01  -1.750000e+00  0  3122 0  -4.426279e+00 -1.818797e+01 -4.426279e+00   1.001606e+00 -5.287688e-08 -1.001606e+00 2.000000e-01  6.250000e-02  
-2.000000e+00  -7.500000e-01  -1.750000e+00  0  3121 0  -9.000054e-07 -3.975959e+00 -1.816197e+01   1.615962e+00 -4.800209e-07 -6.803721e-08 2.000000e-01  6.250000e-02  
-1.500000e+00  -7.500000e-01  -2.000000e+00  0  3035 0  2.655319e+00 -6.452034e+00 2.723004e-07   -1.957264e-10 2.146370e-08 1.766327e-01 2.000000e-01  6.250000e-02  
-1.500000e+00  -7.500000e-01  -1.750000e+00  0  3123 0  2.148396e+01 -1.451409e+01 -1.068424e+01   7.228572e-01 1.745700e-01 -4.521982e-01 2.000000e-01  6.250000e-02  
-1.250000e+00  -7.500000e-01  -2.000000e+00  0  3795 0  -4.669343e+00 -1.424086e+01 -1.090416e-07   -3.054709e-08 1.761748e-08 3.799827e-01 2.000000e-01  6.250000e-02  
-1.250000e+00  -7.500000e-01  -1.750000e+00  0  3859 0  -6.351331e+00 -5.304714e+00 -1.818639e+01   9.634993e-01 -7.854591e-01 4.415544e-01 2.000000e-01  6.250000e-02  
-1.000000e+00  -7.500000e-01  -2.000000e+00  0  3796 0  5.717158e+00 9.947649e-01 -6.691555e-09   -7.283734e-10 1.906112e-08 -1.356886e+00 2.000000e-01  6.250000e-02  
-1.000000e+00  -7.500000e-01  -1.750000e+00  0  3860 0  1.594263e+01 -3.690885e+00 -1.254345e+01   4.094781e-01 1.741675e-01 -4.844264e-01 2.000000e-01  6.250000e-02  
-7.500000e-01  -7.500000e-01  -2.000000e+00  0  3797 0  -5.957452e+00 -5.957452e+00 8.012985e-08   1.473936e-08 -1.490121e-08 1.225709e-09 2.000000e-01  6.250000e-02  
-7.500000e-01  -7.500000e-01  -1.750000e+00  0  3861 0  -7.672625e+00 -7.672625e+00 -7.974153e+00   3.091733e-01 -3.091733e-01 1.229146e-09 2.000000e-01  6.250000e-02  
-5.000000e-01  -7.500000e-01  -2.000000e+00  0  3798 0  -2.780138e+00 -2.671047e+00 -2.027831e-08   4.980770e-09 -6.734577e-09 1.145207e-01 2.000000e-01  6.250000e-02  
-5.000000e-01  -7.500000e-01  -1.750000e+00  0  3862 0  1.201740e+00 -5.044138e+00 -1.732581e+01   6.010985e-01 -2.741930e-01 4.322299e-01 2.000000e-01  6.250000e-02  
-2.500000e-01  -7.500000e-01  -2.000000e+00  0  3799 0  2.977045e-01 9.095959e-01 -1.588850e-09   5.141922e-10 9.018162e-10 -2.453434e-01 2.000000e-01  6.250000e-02  
-2.500000e-01  -7.500000e-01  -1.750000e+00  0  3863 0  3.093451e+00 -4.126342e+00 -1.274833e+01   4.805399e-01 -1.341760e-01 -1.880234e-01 2.000000e-01  6.250000e-02  
0.000000e+00  -7.500000e-01  -2.000000e+00  0  3800 0  -3.756730e-09 -8.176279e-03 1.071639e-09   8.047253e-10 -1.904585e-11 2.830211e-09 2.000000e-01  6.250000e-02  
0.000000e+00  -7.500000e-01  -1.750000e+00  0  3864 0  -9.063979e-09 -9.754641e+00 -1.765546e+01   4.268070e-01 1.394926e-09 2.111146e-09 2.000000e-01  6.250000e-02  
-1.750000e+00  -5.000000e-01  -2.000000e+00  0  3045 0  -3.391848e+00 -4.206526e+00 -1.763259e-06   -2.607488e-09 2.170536e-07 -8.041666e-01 2.000000e-01  6.250000e-02  
-2.000000e+00  -5.000000e-01  -2.000000e+00  0  3044 0  -1.955187e-06 -1.470720e+01 -1.502207e-06   4.857219e-08 3.849208e-10 -5.918440e-08 2.000000e-01  6.250000e-02  
-1.750000e+00  -5.000000e-01  -1.750000e+00  0  3133 0  -1.516257e+01 -2.350761e+00 -1.516257e+01   7.102951e-01 -3.525723e-08 -7.102952e-01 2.000000e-01  6.250000e-02  
-2.000000e+00  -5.000000e-01  -1.750000e+00  0  3132 0  -2.305944e-06 -4.206526e+00 -3.391848e+00   8.041667e-01 -2.826907e-07 6.071862e-09 2.000000e-01  6.250000e-02  
-1.500000e+00  -5.000000e-01  -2.000000e+00  0  3046 0  9.872008e+00 -4.334518e+00 4.755310e-07   -2.424258e-08 4.987669e-10 9.444688e-01 2.000000e-01  6.250000e-02  
-1.500000e+00  -5.000000e-01  -1.750000e+00  0  3134 0  2.171561e+01 4.201674e+00 -1.287935e+01   7.124292e-01 6.069303e-01 7.093262e-01 2.000000e-01  6.250000e-02  
-1.250000e+00  -5.000000e-01  -2.000000e+00  0  3803 0  2.548494e+00 -7.984502e+00 -5.093200e-08   7.914393e-09 1.303937e-10 -1.385646e-01 2.000000e-01  6.250000e-02  
-1.250000e+00  -5.000000e-01  -1.750000e+00  0  3867 0  -7.153267e+00 1.512657e+00 -1.525589e+01   6.408680e-01 -8.534360e-01 1.303729e-01 2.000000e-01  6.250000e-02  
-1.000000e+00  -5.000000e-01  -2.000000e+00  0  3804 0  5.550191e-01 -5.537639e-01 1.289962e-09   8.291165e-09 -1.712650e-09 -9.852894e-01 2.000000e-01  6.250000e-02  
-1.000000e+00  -5.000000e-01  -1.750000e+00  0  3868 0  -5.782189e+00 -5.235297e+00 -1.293825e+01   2.483054e-01 -5.093092e-01 -4.902207e-01 2.000000e-01  6.250000e-02  
-7.500000e-01  -5.000000e-01  -2.000000e+00  0  3805 0  -2.671047e+00 -2.780138e+00 -2.098507e-08   6.843586e-09 -5.159455e-09 -1.145207e-01 2.000000e-01  6.250000e-02  
-7.500000e-01  -5.000000e-01  -1.750000e+00  0  3869 0  -5.044138e+00 1.201740e+00 -1.732581e+01   2.741931e-01 -6.010985e-01 -4.322299e-01 2.000000e-01  6.250000e-02  
-5.000000e-01  -5.000000e-01  -2.000000e+00  0  3806 0  -1.626849e+00 -1.626849e+00 8.785846e-09   1.647429e-09 -1.678435e-09 -2.004246e-11 2.000000e-01  6.250000e-02  
-5.000000e-01  -5.000000e-01  -1.750000e+00  0  3870 0  2.412926e+00 2.412926e+00 -2.248339e+01   3.651566e-01 -3.651566e-01 6.350246e-12 2.000000e-01  6.250000e-02  
-2.500000e-01  -5.000000e-01  -2.000000e+00  0  3807 0  -1.628249e-01 -2.409679e+00 6.352810e-10   -7.710487e-10 6.795480e-10 -1.715261e-01 2.000000e-01  6.250000e-02  
-2.500000e-01  -5.000000e-01  -1.750000e+00  0  3871 0  2.849542e+00 -5.951783e+00 -1.602045e+01   2.006606e-01 -9.669616e-02 -2.080170e-01 2.000000e-01  6.250000e-02  
0.000000e+00  -5.000000e-01  -2.000000e+00  0  3808 0  1.331811e-09 -3.541412e+00 1.597624e-09   2.470727e-10 -2.025019e-12 -3.298843e-10 2.000000e-01  6.250000e-02  
0.000000e+00  -5.000000e-01  -1.750000e+00  0  3872 0  1.108879e-09 4.176402e+00 -2.027416e+01   1.960847e-01 -6.002448e-11 -2.227668e-10 2.000000e-01  6.250000e-02  
-1.750000e+00  -2.500000e-01  -2.000000e+00  0  3056 0  -1.724758e+01 -1.284934e-01 2.645574e-07   -4.112815e-08 1.292411e-07 -3.121951e-01 2.000000e-01  6.250000e-02  
-2.000000e+00  -2.500000e-01  -2.000000e+00  0  3055 0  -1.432065e-06 3.891979e+00 -1.105176e-06   -6.166713e-08 5.491369e-10 7.947507e-08 2.000000e-01  6.250000e-02  
-1.750000e+00  -2.500000e-01  -1.750000e+00  0  3144 0  -2.329169e-01 2.098704e+01 -2.329167e-01   3.877696e-01 -2.468305e-08 -3.877696e-01 2.000000e-01  6.250000e-02  
-2.000000e+00  -2.500000e-01  -1.750000e+00  0  3143 0  3.456414e-07 -1.284936e-01 -1.724758e+01   3.121951e-01 -1.691893e-07 5.285418e-08 2.000000e-01  6.250000e-02  
-1.500000e+00  -2.500000e-01  -2.000000e+00  0  3057 0  7.617637e+00 1.030709e+00 -1.458904e-07   -1.755000e-08 3.190818e-08 7.788969e-01 2.000000e-01  6.250000e-02  
-1.500000e+00  -2.500000e-01  -1.750000e+00  0  3145 0  1.615729e+01 -2.922480e+00 -4.686084e+00   4.559068e-01 6.473490e-01 8.850526e-01 2.000000e-01  6.250000e-02  
-1.250000e+00  -2.500000e-01  -2.000000e+00  0  3811 0  -1.568412e+00 2.507287e+00 -1.820389e-08   -6.813410e-09 3.290692e-09 1.612543e-01 2.000000e-01  6.250000e-02  
-1.250000e+00  -2.500000e-01  -1.750000e+00  0  3875 0  -5.978066e+00 1.150864e+00 -1.575092e+01   3.776731e-01 -9.694948e-01 2.467386e-01 2.000000e-01  6.250000e-02  
-1.000000e+00  -2.500000e-01  -2.000000e+00  0  3812 0  -5.012741e-01 -9.101530e-01 4.255183e-09   4.857927e-10 9.508443e-10 3.335170e-01 2.000000e-01  6.250000e-02  
-1.000000e+00  -2.500000e-01  -1.750000e+00  0  3876 0  4.212801e+00 7.669680e+00 -9.745599e+00   2.187329e-01 -8.237322e-01 4.660111e-01 2.000000e-01  6.250000e-02  
-7.500000e-01  -2.500000e-01  -2.000000e+00  0  3813 0  9.095959e-01 2.977045e-01 -1.317487e-09   -8.431313e-10 -6.385261e-10 2.453434e-01 2.000000e-01  6.250000e-02  
-7.500000e-01  -2.500000e-01  -1.750000e+00  0  3877 0  -4.126342e+00 3.093451e+00 -1.274833e+01   1.341760e-01 -4.805399e-01 1.880234e-01 2.000000e-01  6.250000e-02  
-5.000000e-01  -2.500000e-01  -2.000000e+00  0  3814 0  -2.409679e+00 -1.628249e-01 1.344335e-09   -6.639043e-10 6.825530e-10 1.715261e-01 2.000000e-01  6.250000e-02  
-5.000000e-01  -2.500000e-01  -1.750000e+00  0  3878 0  -5.951783e+00 2.849542e+00 -1.602045e+01   9.669616e-02 -2.006606e-01 2.080170e-01 2.000000e-01  6.250000e-02  
-2.500000e-01  -2.500000e-01  -2.000000e+00  0  3815 0  4.292386e-01 4.292386e-01 -2.694395e-10   -8.222617e-11 9.819379e-11 2.682246e-11 2.000000e-01  6.250000e-02  
-2.500000e-01  -2.500000e-01  -1.750000e+00  0  3879 0  2.855398e+00 2.855398e+00 -1.437930e+01   1.198190e-01 -1.198190e-01 -7.921351e-12 2.000000e-01  6.250000e-02  
0.000000e+00  -2.500000e-01  -2.000000e+00  0  3816 0  -3.676285e-11 -2.225723e-01 1.245981e-09   6.366394e-11 1.002985e-10 -1.778940e-10 2.000000e-01  6.250000e-02  
0.000000e+00  -2.500000e-01  -1.750000e+00  0  3880 0  2.094824e-10 3.506992e+00 -1.579769e+01   1.840087e-01 -9.493535e-11 -2.133608e-10 2.000000e-01  6.250000e-02  
-1.750000e+00  0.000000e+00  -2.000000e+00  0  3067 0  -2.319754e+00 1.453271e-06 1.140585e-07   4.832856e-10 6.638844e-08 6.568822e-07 2.000000e-01  6.250000e-02  
-2.000000e+00  0.000000e+00  -2.000000e+00  0  3066 0  -2.036898e-06 -2.378247e-06 -1.559228e-06   1.330583e-09 5.423984e-10 -1.991368e-09 2.000000e-01  6.250000e-02  
-1.750000e+00  0.000000e+00  -1.750000e+00  0  3155 0  -1.764734e+01 -4.144266e-06 -1.764734e+01   -5.057704e-07 -2.358883e-08 5.055448e-07 2.000000e-01  6.250000e-02  
-2.000000e+00  0.000000e+00  -1.750000e+00  0  3154 0  1.360745e-07 1.454446e-06 -2.319754e+00   -6.573532e-07 -8.808364e-08 -8.494261e-10 2.000000e-01  6.250000e-02  
-1.500000e+00  0.000000e+00  -2.000000e+00  0  3068 0  7.656192e+00 -2.464663e-07 -2.575721e-07   -9.811034e-11 4.319407e-08 2.421421e-07 2.000000e-01  6.250000e-02  
-1.500000e+00  0.000000e+00  -1.750000e+00  0  3156 0  2.251002e+01 5.878424e-07 -1.321126e+01   -1.546146e-07 5.486305e-01 1.799388e-07 2.000000e-01  6.250000e-02  
-1.250000e+00  0.000000e+00  -2.000000e+00  0  3819 0  3.160906e+00 1.078760e-07 2.497034e-08   -1.049028e-11 -3.122195e-09 1.052760e-08 2.000000e-01  6.250000e-02  
-1.250000e+00  0.000000e+00  -1.750000e+00  0  3883 0  -8.835869e+00 -1.215028e-07 -1.615309e+01   1.879089e-08 -9.841828e-01 1.042751e-08 2.000000e-01  6.250000e-02  
-1.000000e+00  0.000000e+00  -2.000000e+00  0  3820 0  -1.323289e+00 -1.963621e-09 -7.990796e-09   -5.866307e-12 1.673037e-09 -3.614473e-09 2.000000e-01  6.250000e-02  
-1.000000e+00  0.000000e+00  -1.750000e+00  0  3884 0  5.085481e+00 4.761792e-10 -1.368716e+01   -4.741271e-09 -8.680824e-01 -1.927242e-09 2.000000e-01  6.250000e-02  
-7.500000e-01  0.000000e+00  -2.000000e+00  0  3821 0  -8.176278e-03 -2.671225e-09 1.349333e-09   -1.243766e-11 -8.849816e-10 -2.045410e-09 2.000000e-01  6.250000e-02  
-7.500000e-01  0.000000e+00  -1.750000e+00  0  3885 0  -9.754641e+00 -6.278436e-09 -1.765546e+01   -1.181645e-09 -4.268070e-01 -1.601968e-09 2.000000e-01  6.250000e-02  
-5.000000e-01  0.000000e+00  -2.000000e+00  0  3822 0  -3.541412e+00 6.628032e-10 1.393406e-09   -9.333923e-13 -2.832052e-10 4.056255e-10 2.000000e-01  6.250000e-02  
-5.000000e-01  0.000000e+00  -1.750000e+00  0  3886 0  4.176402e+00 1.514856e-09 -2.027416e+01   -1.846172e-11 -1.960847e-01 2.406317e-10 2.000000e-01  6.250000e-02  
-2.500000e-01  0.000000e+00  -2.000000e+00  0  3823 0  -2.225723e-01 -8.736143e-10 1.397312e-09   -2.487016e-11 1.488659e-11 -2.026767e-11 2.000000e-01  6.250000e-02  
-2.500000e-01  0.000000e+00  -1.750000e+00  0  3887 0  3.506992e+00 -3.671747e-11 -1.579769e+01   8.616353e-11 -1.840087e-01 3.676094e-11 2.000000e-01  6.250000e-02  
0.000000e+00  0.000000e+00  -2.000000e+00  0  3824 0  1.127384e-09 1.400254e-09 3.048200e-09   -4.350187e-12 8.489945e-11 -1.802970e-10 2.000000e-01  6.250000e-02  
0.000000e+00  0.000000e+00  -1.750000e+00  0  3888 0  -1.002421e-09 -1.099949e-09 -1.919194e+01   3.497871e-12 -5.648370e-11 -9.785194e-11 2.000000e-01  6.250000e-02  
-2.000000e+00  -2.000000e+00  -1.500000e+00  0  1306 0  -1.515972e-05 -1.120060e-05 -8.860868e+00   -1.572229e-06 2.093026e-06 1.565122e-08 2.000000e-01  6.250000e-02  
-1.750000e+00  -2.000000e+00  -1.500000e+00  0  1307 0  -5.917862e+00 -1.862879e-06 1.519629e+01   6.804830e-08 -1.647542e+00 -3.600719e-07 2.000000e-01  6.250000e-02  
-1.750000e+00  -1.750000e+00  -1.500000e+00  0  1318 0  -1.626667e+01 -1.626667e+01 9.612058e-01   2.103217e+00 -2.103217e+00 4.617231e-08 2.000000e-01  6.250000e-02  
-2.000000e+00  -1.750000e+00  -1.500000e+00  0  1317 0  -2.408303e-06 -5.917858e+00 1.519629e+01   1.647542e+00 -5.342320e-08 4.699702e-07 2.000000e-01  6.250000e-02  
-1.500000e+00  -2.000000e+00  -1.500000e+00  0  1308 0  2.292435e+00 -4.484723e-07 2.292435e+00   8.340367e-07 2.342615e-08 -8.335058e-07 2.000000e-01  6.250000e-02  
-1.500000e+00  -1.750000e+00  -1.500000e+00  0  1319 0  5.873099e+00 -1.848965e+01 5.873099e+00   2.169619e+00 8.620988e-08 -2.169619e+00 2.000000e-01  6.250000e-02  
-1.250000e+00  -2.000000e+00  -1.500000e+00  0  2275 0  -6.933286e+00 -1.824413e-06 5.954008e+00   -7.055510e-08 8.810855e-01 2.852315e-07 2.000000e-01  6.250000e-02  
-1.250000e+00  -1.750000e+00  -1.500000e+00  0  2283 0  -2.896824e+00 -1.320086e+01 1.006052e+01   1.745500e+00 1.304701e+00 1.292825e+00 2.000000e-01  6.250000e-02  
-1.000000e+00  -2.000000e+00  -1.500000e+00  0  2276 0  4.350977e+00 -8.470004e-08 1.328762e+01   -2.394349e-08 -9.878881e-01 2.361528e-07 2.000000e-01  6.250000e-02  
-1.000000e+00  -1.750000e+00  -1.500000e+00  0  2284 0  2.281369e-01 -4.056759e+00 9.479588e+00   7.960006e-01 4.411471e-02 1.283463e+00 2.000000e-01  6.250000e-02  
-7.500000e-01  -2.000000e+00  -1.500000e+00  0  2277 0  -6.452034e+00 2.604089e-07 2.655320e+00   2.047339e-08 1.766328e-01 -1.813239e-09 2.000000e-01  6.250000e-02  
-7.500000e-01  -1.750000e+00  -1.500000e+00  0  2285 0  -1.451409e+01 -1.068423e+01 2.148396e+01   1.745700e-01 -4.521981e-01 7.228571e-01 2.000000e-01  6.250000e-02  
-5.000000e-01  -2.000000e+00  -1.500000e+00  0  2278 0  -4.334517e+00 4.695551e-07 9.872007e+00   7.166411e-10 9.444691e-01 -2.807023e-08 2.000000e-01  6.250000e-02  
-5.000000e-01  -1.750000e+00  -1.500000e+00  0  2286 0  4.201673e+00 -1.287935e+01 2.171561e+01   6.069303e-01 7.093264e-01 7.124290e-01 2.000000e-01  6.250000e-02  