VARIABLES="X", "Y", "Z", "Maximum Refinment Level", "Temp_ID", "Thread","Ex (corner node)","Ey (corner node)","Ez (corner node)","Bx (center node)","By (center node)","Bz (center node)", "Local Time Step" , "log10(Local Particle Weight)" 
ZONE N=4913, E=4096, DATAPACKING=POINT, ZONETYPE=FEBRICK
-2.000000e+00  -2.000000e+00  -2.000000e+00  0  1064 0  1.176416e-04 -8.201337e-05 7.801681e-05   -1.043963e-07 -1.258523e-07 1.014274e-07 2.000000e-01  6.250000e-02  
-1.750000e+00  -2.000000e+00  -2.000000e+00  0  1065 0  5.353512e-02 -7.091034e-01 -5.870141e-05   -4.821245e-07 -6.367143e-06 4.755911e-01 2.000000e-01  6.250000e-02  
-1.750000e+00  -1.750000e+00  -2.000000e+00  0  1076 0  -3.535164e+00 -3.535155e+00 6.182445e-05   1.996999e-06 -2.327217e-06 -2.137313e-05 2.000000e-01  6.250000e-02  
-2.000000e+00  -1.750000e+00  -2.000000e+00  0  1075 0  -7.091114e-01 5.321730e-02 -5.671401e-05   6.419213e-06 3.598290e-07 -4.756390e-01 2.000000e-01  6.250000e-02  
-2.000000e+00  -2.000000e+00  -1.750000e+00  0  1185 0  -7.966567e-05 6.362200e-07 4.139193e+00   1.185395e-05 3.857811e-05 1.383324e-07 2.000000e-01  6.250000e-02  
-1.750000e+00  -2.000000e+00  -1.750000e+00  0  1186 0  -5.328621e+00 -3.471836e+00 -2.654453e-01   -4.450774e-01 9.062653e-02 -4.793001e-02 2.000000e-01  6.250000e-02  
-1.750000e+00  -1.750000e+00  -1.750000e+00  0  1197 0  -5.398300e+00 -5.398262e+00 -4.876141e+00   -4.183669e-01 4.183896e-01 -1.629679e-05 2.000000e-01  6.250000e-02  
-2.000000e+00  -1.750000e+00  -1.750000e+00  0  1196 0  -3.471818e+00 -5.328620e+00 -2.654741e-01   -9.059020e-02 4.451178e-01 4.790101e-02 2.000000e-01  6.250000e-02  
-1.500000e+00  -2.000000e+00  -2.000000e+00  0  1066 0  9.498066e+00 1.021857e+00 2.709580e-05   1.566376e-06 -3.624213e-06 2.529688e-01 2.000000e-01  6.250000e-02  
-1.500000e+00  -1.750000e+00  -2.000000e+00  0  1077 0  4.819619e+00 2.345719e+00 -3.948516e-05   -9.187911e-06 1.773656e-06 -8.552375e-01 2.000000e-01  6.250000e-02  
-1.500000e+00  -2.000000e+00  -1.750000e+00  0  1187 0  4.612087e+00 2.800066e-01 3.264947e+00   -3.291591e-01 1.810830e+00 -1.071071e-01 2.000000e-01  6.250000e-02  
-1.500000e+00  -1.750000e+00  -1.750000e+00  0  1198 0  4.488091e+00 3.298260e+00 2.345941e+00   -2.718818e-01 2.127210e+00 -8.781925e-01 2.000000e-01  6.250000e-02  
-1.250000e+00  -2.000000e+00  -2.000000e+00  0  2099 0  9.399447e+00 2.031369e+00 -2.152286e-05   -1.246514e-06 8.284998e-06 3.173543e-01 2.000000e-01  6.250000e-02  
-1.250000e+00  -1.750000e+00  -2.000000e+00  0  2107 0  -4.924124e+00 -3.287134e+00 1.676724e-05   -9.611257e-06 3.175516e-06 -5.305347e-02 2.000000e-01  6.250000e-02  
-1.250000e+00  -2.000000e+00  -1.750000e+00  0  2187 0  -3.446462e+00 -7.987471e-03 -2.172501e+00   -4.895474e-01 4.070092e-01 2.196774e-01 2.000000e-01  6.250000e-02  
-1.250000e+00  -1.750000e+00  -1.750000e+00  0  2195 0  -1.031946e+01 4.639609e+00 3.769963e+00   2.614487e-02 6.672797e-01 -2.866318e-01 2.000000e-01  6.250000e-02  
-1.000000e+00  -2.000000e+00  -2.000000e+00  0  2100 0  7.181425e+00 3.076620e-01 -3.844031e-05   -9.808267e-07 -2.026978e-06 1.312694e-01 2.000000e-01  6.250000e-02  
-1.000000e+00  -1.750000e+00  -2.000000e+00  0  2108 0  -9.402188e-01 6.476532e+00 1.907489e-05   -1.261904e-06 1.457542e-06 -2.885463e-01 2.000000e-01  6.250000e-02  
-1.000000e+00  -2.000000e+00  -1.750000e+00  0  2188 0  -4.128868e+00 -1.127159e+00 4.356695e+00   -3.349655e-01 -3.791292e-02 1.217632e-02 2.000000e-01  6.250000e-02  
-1.000000e+00  -1.750000e+00  -1.750000e+00  0  2196 0  -3.766155e-01 3.060417e+00 2.441326e+00   4.157897e-01 8.827793e-02 -7.688930e-01 2.000000e-01  6.250000e-02  
-7.500000e-01  -2.000000e+00  -2.000000e+00  0  2101 0  -7.802692e+00 2.038213e+00 3.346653e-05   2.020237e-06 2.924441e-06 -2.250505e-02 2.000000e-01  6.250000e-02  
-7.500000e-01  -1.750000e+00  -2.000000e+00  0  2109 0  6.744697e+00 1.075080e+01 2.613416e-05   -1.787075e-06 7.220342e-06 -1.343067e-01 2.000000e-01  6.250000e-02  
-7.500000e-01  -2.000000e+00  -1.750000e+00  0  2189 0  7.750965e+00 -1.219386e+00 9.708195e+00   1.060222e-01 1.183563e-01 -2.735097e-01 2.000000e-01  6.250000e-02  
-7.500000e-01  -1.750000e+00  -1.750000e+00  0  2197 0  -7.606124e+00 -2.203652e+00 -2.951431e+00   6.426819e-01 4.033995e-01 -3.629865e-01 2.000000e-01  6.250000e-02  
-5.000000e-01  -2.000000e+00  -2.000000e+00  0  2102 0  -2.765177e-01 -6.317481e+00 5.473162e-06   -4.281930e-08 6.277813e-06 4.876320e-01 2.000000e-01  6.250000e-02  
-5.000000e-01  -1.750000e+00  -2.000000e+00  0  2110 0  2.104859e+00 -1.223018e+00 -2.100829e-05   -4.197684e-06 1.447567e-05 1.261606e+00 2.000000e-01  6.250000e-02  
-5.000000e-01  -2.000000e+00  -1.750000e+00  0  2190 0  -1.193050e+00 1.884474e+00 3.979974e+00   4.157803e-01 -7.529394e-01 2.315731e-01 2.000000e-01  6.250000e-02  
-5.000000e-01  -1.750000e+00  -1.750000e+00  0  2198 0  2.111181e+00 -2.324260e+00 -3.907979e+00   5.509407e-01 -1.112186e-01 8.525605e-01 2.000000e-01  6.250000e-02  
-2.500000e-01  -2.000000e+00  -2.000000e+00  0  2103 0  8.145057e+00 1.235712e+00 -1.031662e-05   -1.233605e-06 4.167070e-06 -2.308883e-01 2.000000e-01  6.250000e-02  
-2.500000e-01  -1.750000e+00  -2.000000e+00  0  2111 0  -4.561597e+00 2.109422e+00 -4.838422e-06   -1.896148e-06 5.962722e-06 -1.935366e-02 2.000000e-01  6.250000e-02  
-2.500000e-01  -2.000000e+00  -1.750000e+00  0  2191 0  -3.573943e+00 1.277752e+00 8.129504e-01   2.654001e-01 1.624799e-01 2.117032e-03 2.000000e-01  6.250000e-02  
-2.500000e-01  -1.750000e+00  -1.750000e+00  0  2199 0  2.092952e+00 -4.761480e+00 -6.462673e+00   3.148468e-01 -6.654095e-01 9.853773e-01 2.000000e-01  6.250000e-02  
0.000000e+00  -2.000000e+00  -2.000000e+00  0  2104 0  -1.750357e-04 1.225911e-04 1.142013e-06   -1.524440e-08 -6.844337e-09 -6.646349e-01 2.000000e-01  6.250000e-02  
0.000000e+00  -1.750000e+00  -2.000000e+00  0  2112 0  9.080511e-01 -4.245167e+00 -1.773485e-05   1.159719e-06 -1.841322e-06 -6.280742e-01 2.000000e-01  6.250000e-02  
0.000000e+00  -2.000000e+00  -1.750000e+00  0  2192 0  2.075438e-05 2.327646e-06 -4.960299e+00   2.489955e-05 -1.493663e-05 -4.725838e-01 2.000000e-01  6.250000e-02  
0.000000e+00  -1.750000e+00  -1.750000e+00  0  2200 0  -1.860177e+00 4.366512e+00 4.950544e+00   -6.214232e-02 -2.369172e-01 -3.507098e-01 2.000000e-01  6.250000e-02  
-1.750000e+00  -1.500000e+00  -2.000000e+00  0  1087 0  2.345717e+00 4.819632e+00 -3.794053e-05   -1.822794e-06 8.993500e-06 8.552180e-01 2.000000e-01  6.250000e-02  
-2.000000e+00  -1.500000e+00  -2.000000e+00  0  1086 0  1.021911e+00 9.498164e+00 2.712030e-05   3.794326e-06 -1.590903e-06 -2.530096e-01 2.000000e-01  6.250000e-02  
-1.750000e+00  -1.500000e+00  -1.750000e+00  0  1208 0  3.298246e+00 4.488103e+00 2.345944e+00   -2.127207e+00 2.718925e-01 8.781774e-01 2.000000e-01  6.250000e-02  
-2.000000e+00  -1.500000e+00  -1.750000e+00  0  1207 0  2.800351e-01 4.612151e+00 3.264911e+00   -1.810817e+00 3.291715e-01 1.070968e-01 2.000000e-01  6.250000e-02  
-1.500000e+00  -1.500000e+00  -2.000000e+00  0  1088 0  -6.674431e+00 -6.674417e+00 -5.927664e-05   -1.553313e-05 1.544911e-05 -5.981833e-06 2.000000e-01  6.250000e-02  
-1.500000e+00  -1.500000e+00  -1.750000e+00  0  1209 0  -4.015382e+00 -4.015394e+00 2.018303e-01   -5.666211e-01 5.666248e-01 -4.053482e-06 2.000000e-01  6.250000e-02  
-1.250000e+00  -1.500000e+00  -2.000000e+00  0  2115 0  -1.261443e+00 2.168012e+00 -6.826298e-06   -1.035565e-06 4.061874e-06 -5.116382e-01 2.000000e-01  6.250000e-02  
-1.250000e+00  -1.500000e+00  -1.750000e+00  0  2203 0  3.471164e+00 -3.805174e+00 2.466118e+00   1.171225e+00 5.960360e-01 -6.591791e-01 2.000000e-01  6.250000e-02  
-1.000000e+00  -1.500000e+00  -2.000000e+00  0  2116 0  4.476401e+00 1.988360e+00 -5.207456e-06   9.272773e-06 3.025427e-06 7.651508e-01 2.000000e-01  6.250000e-02  
-1.000000e+00  -1.500000e+00  -1.750000e+00  0  2204 0  -2.314240e+00 -6.585716e+00 -8.250735e+00   5.214656e-01 5.087185e-01 1.537514e+00 2.000000e-01  6.250000e-02  
-7.500000e-01  -1.500000e+00  -2.000000e+00  0  2117 0  4.580366e+00 6.696494e+00 -1.359211e-05   3.319913e-06 4.792500e-06 2.544818e+00 2.000000e-01  6.250000e-02  
-7.500000e-01  -1.500000e+00  -1.750000e+00  0  2205 0  6.604848e+00 1.916168e+00 4.162452e+00   -8.699590e-01 9.200745e-01 2.708906e+00 2.000000e-01  6.250000e-02  
-5.000000e-01  -1.500000e+00  -2.000000e+00  0  2118 0  5.978322e+00 1.555210e+00 -3.398269e-05   -2.193779e-06 1.111460e-05 1.171778e+00 2.000000e-01  6.250000e-02  
-5.000000e-01  -1.500000e+00  -1.750000e+00  0  2206 0  -1.770265e+00 -6.347501e+00 5.997442e+00   -1.630136e-01 -2.765469e-01 6.788780e-01 2.000000e-01  6.250000e-02  
-2.500000e-01  -1.500000e+00  -2.000000e+00  0  2119 0  8.378351e+00 -1.614795e+00 -8.820286e-06   -7.391124e-07 2.607345e-06 1.382802e-02 2.000000e-01  6.250000e-02  
-2.500000e-01  -1.500000e+00  -1.750000e+00  0  2207 0  3.808449e+00 -4.880851e+00 5.285892e+00   2.259805e-01 -8.424563e-01 1.005202e-01 2.000000e-01  6.250000e-02  
0.000000e+00  -1.500000e+00  -2.000000e+00  0  2120 0  8.686828e-01 8.142969e-02 2.462154e-06   3.960538e-07 -2.302736e-06 -3.965103e-01 2.000000e-01  6.250000e-02  
0.000000e+00  -1.500000e+00  -1.750000e+00  0  2208 0  -1.935121e+00 -1.983427e-01 3.562984e+00   -7.643514e-01 -1.149592e-01 -3.428883e-01 2.000000e-01  6.250000e-02  
-1.750000e+00  -1.250000e+00  -2.000000e+00  0  3012 0  -3.287156e+00 -4.924095e+00 1.692496e-05   -3.159455e-06 9.686926e-06 5.305937e-02 2.000000e-01  6.250000e-02  
-2.000000e+00  -1.250000e+00  -2.000000e+00  0  3011 0  2.031287e+00 9.399402e+00 -2.108995e-05   -8.224834e-06 1.229521e-06 -3.173526e-01 2.000000e-01  6.250000e-02  
-1.750000e+00  -1.250000e+00  -1.750000e+00  0  3100 0  4.639616e+00 -1.031950e+01 3.769951e+00   -6.672831e-01 -2.614519e-02 2.866337e-01 2.000000e-01  6.250000e-02  
-2.000000e+00  -1.250000e+00  -1.750000e+00  0  3099 0  -8.006348e-03 -3.446436e+00 -2.172505e+00   -4.070115e-01 4.895421e-01 -2.196668e-01 2.000000e-01  6.250000e-02  
-1.500000e+00  -1.250000e+00  -2.000000e+00  0  3013 0  2.168014e+00 -1.261445e+00 -6.806550e-06   -4.030074e-06 1.076328e-06 5.116386e-01 2.000000e-01  6.250000e-02  
-1.500000e+00  -1.250000e+00  -1.750000e+00  0  3101 0  -3.805171e+00 3.471168e+00 2.466105e+00   -5.960327e-01 -1.171223e+00 6.591803e-01 2.000000e-01  6.250000e-02  
-1.250000e+00  -1.250000e+00  -2.000000e+00  0  3779 0  -1.427724e+00 -1.427714e+00 -1.153671e-05   2.184493e-06 -2.213208e-06 -2.015647e-06 2.000000e-01  6.250000e-02  
-1.250000e+00  -1.250000e+00  -1.750000e+00  0  3843 0  -6.130496e+00 -6.130488e+00 -8.296631e+00   1.026031e-01 -1.026032e-01 3.804201e-07 2.000000e-01  6.250000e-02  
-1.000000e+00  -1.250000e+00  -2.000000e+00  0  3780 0  -3.561416e-01 1.404055e+00 6.403071e-06   5.691420e-06 2.280234e-06 3.810220e-02 2.000000e-01  6.250000e-02  
-1.000000e+00  -1.250000e+00  -1.750000e+00  0  3844 0  -3.911195e+00 -4.390315e+00 -8.556645e-01   4.292146e-01 7.672973e-01 1.764797e-01 2.000000e-01  6.250000e-02  
-7.500000e-01  -1.250000e+00  -2.000000e+00  0  3781 0  5.596424e-02 -7.875890e+00 7.156190e-06   3.958650e-06 2.487722e-06 1.645719e+00 2.000000e-01  6.250000e-02  
-7.500000e-01  -1.250000e+00  -1.750000e+00  0  3845 0  1.032947e+00 1.073417e+00 -4.793015e-02   2.919430e-01 2.086240e+00 6.748536e-01 2.000000e-01  6.250000e-02  
-5.000000e-01  -1.250000e+00  -2.000000e+00  0  3782 0  -6.938136e+00 5.385868e+00 -6.311530e-06   1.220028e-06 3.609453e-06 1.225481e+00 2.000000e-01  6.250000e-02  
-5.000000e-01  -1.250000e+00  -1.750000e+00  0  3846 0  3.220542e-01 4.247437e-01 -4.890580e+00   -3.341834e-01 7.562913e-01 2.453537e-01 2.000000e-01  6.250000e-02  
-2.500000e-01  -1.250000e+00  -2.000000e+00  0  3783 0  9.436518e-01 1.665127e+00 8.651814e-07   4.768664e-07 5.562209e-07 1.094865e+00 2.000000e-01  6.250000e-02  
-2.500000e-01  -1.250000e+00  -1.750000e+00  0  3847 0  -4.470636e-01 -1.534765e+00 -4.477631e+00   -8.575925e-01 4.456476e-01 2.946812e-01 2.000000e-01  6.250000e-02  
0.000000e+00  -1.250000e+00  -2.000000e+00  0  3784 0  6.847560e-03 -1.091292e+01 -2.536917e-06   -7.538396e-07 -5.902650e-07 2.835041e-01 2.000000e-01  6.250000e-02  
0.000000e+00  -1.250000e+00  -1.750000e+00  0  3848 0  1.130372e+00 -7.586603e+00 1.878446e+00   -4.774981e-01 7.176922e-02 7.877869e-02 2.000000e-01  6.250000e-02  
-1.750000e+00  -1.000000e+00  -2.000000e+00  0  3023 0  6.476490e+00 -9.401602e-01 1.934038e-05   -1.477832e-06 1.255892e-06 2.885501e-01 2.000000e-01  6.250000e-02  
-2.000000e+00  -1.000000e+00  -2.000000e+00  0  3022 0  3.076757e-01 7.181330e+00 -3.856345e-05   2.058932e-06 9.740242e-07 -1.312768e-01 2.000000e-01  6.250000e-02  
-1.750000e+00  -1.000000e+00  -1.750000e+00  0  3111 0  3.060419e+00 -3.766170e-01 2.441321e+00   -8.828327e-02 -4.157918e-01 7.688919e-01 2.000000e-01  6.250000e-02  
-2.000000e+00  -1.000000e+00  -1.750000e+00  0  3110 0  -1.127168e+00 -4.128926e+00 4.356696e+00   3.790726e-02 3.349663e-01 -1.218701e-02 2.000000e-01  6.250000e-02  
-1.500000e+00  -1.000000e+00  -2.000000e+00  0  3024 0  1.988384e+00 4.476358e+00 -4.868014e-06   -2.995098e-06 -9.269167e-06 -7.651470e-01 2.000000e-01  6.250000e-02  
-1.500000e+00  -1.000000e+00  -1.750000e+00  0  3112 0  -6.585704e+00 -2.314228e+00 -8.250725e+00   -5.087179e-01 -5.214652e-01 -1.537511e+00 2.000000e-01  6.250000e-02  
-1.250000e+00  -1.000000e+00  -2.000000e+00  0  3787 0  1.404046e+00 -3.561368e-01 6.248745e-06   -2.259717e-06 -5.735217e-06 -3.810578e-02 2.000000e-01  6.250000e-02  
-1.250000e+00  -1.000000e+00  -1.750000e+00  0  3851 0  -4.390314e+00 -3.911208e+00 -8.556636e-01   -7.672959e-01 -4.292173e-01 -1.764808e-01 2.000000e-01  6.250000e-02  
-1.000000e+00  -1.000000e+00  -2.000000e+00  0  3788 0  4.733492e+00 4.733492e+00 3.635681e-06   -8.029873e-07 7.913213e-07 -4.425161e-07 2.000000e-01  6.250000e-02  
-1.000000e+00  -1.000000e+00  -1.750000e+00  0  3852 0  -1.811024e+00 -1.811020e+00 -6.234662e-01   -2.501612e-01 2.501609e-01 -9.700383e-07 2.000000e-01  6.250000e-02  
-7.500000e-01  -1.000000e+00  -2.000000e+00  0  3789 0  7.095832e+00 -5.058052e-01 5.065658e-06   -7.859498e-07 2.782882e-06 -2.550374e+00 2.000000e-01  6.250000e-02  
-7.500000e-01  -1.000000e+00  -1.750000e+00  0  3853 0  2.683774e+00 -1.196218e+00 2.485324e+00   5.236913e-01 2.902661e+00 -2.653748e+00 2.000000e-01  6.250000e-02  
-5.000000e-01  -1.000000e+00  -2.000000e+00  0  3790 0  4.500565e+00 -3.267863e+00 3.246671e-07   -9.866002e-07 2.857557e-08 -1.382095e+00 2.000000e-01  6.250000e-02  
-5.000000e-01  -1.000000e+00  -1.750000e+00  0  3854 0  1.071175e+00 5.292656e+00 9.180633e-02   7.288414e-01 1.994222e+00 -9.610971e-01 2.000000e-01  6.250000e-02  
-2.500000e-01  -1.000000e+00  -2.000000e+00  0  3791 0  1.197297e+01 -3.024431e+00 -7.732731e-07   -3.119096e-07 5.777674e-08 1.135034e+00 2.000000e-01  6.250000e-02  
-2.500000e-01  -1.000000e+00  -1.750000e+00  0  3855 0  7.521914e+00 4.734249e+00 -3.865334e-01   1.612706e+00 8.211510e-01 5.204614e-01 2.000000e-01  6.250000e-02  
0.000000e+00  -1.000000e+00  -2.000000e+00  0  3792 0  3.119073e+00 1.296723e+01 2.268768e-07   -1.829911e-07 1.975597e-07 1.664827e-01 2.000000e-01  6.250000e-02  
0.000000e+00  -1.000000e+00  -1.750000e+00  0  3856 0  -7.870636e-02 -4.879196e+00 -4.195272e+00   2.525073e+00 9.958600e-02 9.018344e-02 2.000000e-01  6.250000e-02  
-1.750000e+00  -7.500000e-01  -2.000000e+00  0  3034 0  1.075079e+01 6.744724e+00 2.621731e-05   -7.110878e-06 1.712419e-06 1.343129e-01 2.000000e-01  6.250000e-02  
-2.000000e+00  -7.500000e-01  -2.000000e+00  0  3033 0  2.038271e+00 -7.802681e+00 3.412990e-05   -2.838119e-06 -2.012465e-06 2.249344e-02 2.000000e-01  6.250000e-02  
-1.750000e+00  -7.500000e-01  -1.750000e+00  0  3122 0  -2.203662e+00 -7.606149e+00 -2.951436e+00   -4.034026e-01 -6.426814e-01 3.629894e-01 2.000000e-01  6.250000e-02  
-2.000000e+00  -7.500000e-01  -1.750000e+00  0  3121 0  -1.219372e+00 7.750993e+00 9.708207e+00   -1.183613e-01 -1.060156e-01 2.734990e-01 2.000000e-01  6.250000e-02  
-1.500000e+00  -7.500000e-01  -2.000000e+00  0  3035 0  6.696488e+00 4.580371e+00 -1.351776e-05   -4.717191e-06 -3.359573e-06 -2.544812e+00 2.000000e-01  6.250000e-02  
-1.500000e+00  -7.500000e-01  -1.750000e+00  0  3123 0  1.916172e+00 6.604861e+00 4.162471e+00   -9.200733e-01 8.699582e-01 -2.708902e+00 2.000000e-01  6.250000e-02  
-1.250000e+00  -7.500000e-01  -2.000000e+00  0  3795 0  -7.875894e+00 5.598428e-02 7.111801e-06   -2.451978e-06 -3.964061e-06 -1.645720e+00 2.000000e-01  6.250000e-02  
-1.250000e+00  -7.500000e-01  -1.750000e+00  0  3859 0  1.073423e+00 1.032941e+00 -4.793152e-02   -2.086238e+00 -2.919444e-01 -6.748547e-01 2.000000e-01  6.250000e-02  
-1.000000e+00  -7.500000e-01  -2.000000e+00  0  3796 0  -5.058050e-01 7.095829e+00 5.124687e-06   -2.774459e-06 7.731193e-07 2.550375e+00 2.000000e-01  6.250000e-02  
-1.000000e+00  -7.500000e-01  -1.750000e+00  0  3860 0  -1.196222e+00 2.683778e+00 2.485320e+00   -2.902660e+00 -5.236907e-01 2.653748e+00 2.000000e-01  6.250000e-02  
-7.500000e-01  -7.500000e-01  -2.000000e+00  0  3797 0  -2.403099e+00 -2.403095e+00 -2.341021e-06   -1.028898e-06 1.022300e-06 -3.145111e-07 2.000000e-01  6.250000e-02  
-7.500000e-01  -7.500000e-01  -1.750000e+00  0  3861 0  -6.009249e+00 -6.009248e+00 -1.543228e+00   -1.754884e+00 1.754885e+00 3.224913e-07 2.000000e-01  6.250000e-02  
-5.000000e-01  -7.500000e-01  -2.000000e+00  0  3798 0  4.174724e+00 -2.568160e-01 -4.497344e-08   1.412651e-08 -1.362072e-06 -6.419653e-01 2.000000e-01  6.250000e-02  
-5.000000e-01  -7.500000e-01  -1.750000e+00  0  3862 0  2.700496e-01 -4.285529e+00 -9.620081e-01   -6.428957e-01 1.513934e+00 -6.486633e-01 2.000000e-01  6.250000e-02  
-2.500000e-01  -7.500000e-01  -2.000000e+00  0  3799 0  -1.019883e+01 3.336245e+00 -7.165632e-07   -6.952925e-08 -1.011120e-06 1.102637e-01 2.000000e-01  6.250000e-02  
-2.500000e-01  -7.500000e-01  -1.750000e+00  0  3863 0  2.563574e+00 3.177833e+00 -9.477019e-01   1.026081e+00 -1.426549e-01 -7.982099e-01 2.000000e-01  6.250000e-02  
0.000000e+00  -7.500000e-01  -2.000000e+00  0  3800 0  8.608636e-01 -1.256015e+00 1.082339e-06   -1.340445e-07 -1.782447e-07 -3.242821e-01 2.000000e-01  6.250000e-02  
0.000000e+00  -7.500000e-01  -1.750000e+00  0  3864 0  8.161057e-01 -4.430915e-02 -4.709354e+00   2.544726e+00 1.097342e-01 -2.022892e-01 2.000000e-01  6.250000e-02  
-1.750000e+00  -5.000000e-01  -2.000000e+00  0  3045 0  -1.223050e+00 2.104825e+00 -2.129607e-05   -1.440081e-05 4.192018e-06 -1.261595e+00 2.000000e-01  6.250000e-02  
-2.000000e+00  -5.000000e-01  -2.000000e+00  0  3044 0  -6.317523e+00 -2.765055e-01 5.144335e-06   -6.231160e-06 4.826351e-08 -4.876310e-01 2.000000e-01  6.250000e-02  
-1.750000e+00  -5.000000e-01  -1.750000e+00  0  3133 0  -2.324232e+00 2.111209e+00 -3.907997e+00   1.112137e-01 -5.509386e-01 -8.525496e-01 2.000000e-01  6.250000e-02  
-2.000000e+00  -5.000000e-01  -1.750000e+00  0  3132 0  1.884445e+00 -1.193040e+00 3.979968e+00   7.529367e-01 -4.157725e-01 -2.315723e-01 2.000000e-01  6.250000e-02  
-1.500000e+00  -5.000000e-01  -2.000000e+00  0  3046 0  1.555216e+00 5.978344e+00 -3.397208e-05   -1.106924e-05 2.169029e-06 -1.171772e+00 2.000000e-01  6.250000e-02  
-1.500000e+00  -5.000000e-01  -1.750000e+00  0  3134 0  -6.347506e+00 -1.770288e+00 5.997424e+00   2.765403e-01 1.630129e-01 -6.788711e-01 2.000000e-01  6.250000e-02  
-1.250000e+00  -5.000000e-01  -2.000000e+00  0  3803 0  5.385875e+00 -6.938146e+00 -6.239157e-06   -3.586655e-06 -1.219661e-06 -1.225483e+00 2.000000e-01  6.250000e-02  
-1.250000e+00  -5.000000e-01  -1.750000e+00  0  3867 0  4.247483e-01 3.220514e-01 -4.890571e+00   -7.562951e-01 3.341800e-01 -2.453557e-01 2.000000e-01  6.250000e-02  
-1.000000e+00  -5.000000e-01  -2.000000e+00  0  3804 0  -3.267854e+00 4.500562e+00 4.182679e-07   -2.743866e-08 9.933963e-07 1.382093e+00 2.000000e-01  6.250000e-02  
-1.000000e+00  -5.000000e-01  -1.750000e+00  0  3868 0  5.292658e+00 1.071179e+00 9.180905e-02   -1.994222e+00 -7.288420e-01 9.610971e-01 2.000000e-01  6.250000e-02  
-7.500000e-01  -5.000000e-01  -2.000000e+00  0  3805 0  -2.568159e-01 4.174728e+00 -4.765447e-08   1.359011e-06 -2.500216e-08 6.419645e-01 2.000000e-01  6.250000e-02  
-7.500000e-01  -5.000000e-01  -1.750000e+00  0  3869 0  -4.285526e+00 2.700467e-01 -9.620104e-01   -1.513935e+00 6.428954e-01 6.486629e-01 2.000000e-01  6.250000e-02  
-5.000000e-01  -5.000000e-01  -2.000000e+00  0  3806 0  -8.937778e+00 -8.937781e+00 -7.917234e-07   5.760366e-07 -5.746838e-07 2.890805e-07 2.000000e-01  6.250000e-02  
-5.000000e-01  -5.000000e-01  -1.750000e+00  0  3870 0  -2.035240e+00 -2.035241e+00 7.712759e+00   -1.450291e+00 1.450291e+00 4.068468e-08 2.000000e-01  6.250000e-02  
-2.500000e-01  -5.000000e-01  -2.000000e+00  0  3807 0  1.417953e+00 1.164177e+00 4.713952e-07   -9.021049e-08 -3.982256e-07 4.680994e-01 2.000000e-01  6.250000e-02  
-2.500000e-01  -5.000000e-01  -1.750000e+00  0  3871 0  5.849524e+00 2.136988e+00 1.443883e+00   -7.227407e-01 -7.077482e-01 -3.845200e-01 2.000000e-01  6.250000e-02  
0.000000e+00  -5.000000e-01  -2.000000e+00  0  3808 0  -1.478455e+00 -7.064991e+00 -9.825646e-07   -3.859599e-07 -3.850287e-08 3.816947e-02 2.000000e-01  6.250000e-02  
0.000000e+00  -5.000000e-01  -1.750000e+00  0  3872 0  -8.253614e-02 -1.764452e+00 1.206108e+00   5.067183e-02 -3.438581e-02 9.442505e-02 2.000000e-01  6.250000e-02  
-1.750000e+00  -2.500000e-01  -2.000000e+00  0  3056 0  2.109484e+00 -4.561608e+00 -4.787150e-06   -5.986688e-06 1.895465e-06 1.939175e-02 2.000000e-01  6.250000e-02  
-2.000000e+00  -2.500000e-01  -2.000000e+00  0  3055 0  1.235721e+00 8.145065e+00 -1.043246e-05   -4.195619e-06 1.212760e-06 2.308968e-01 2.000000e-01  6.250000e-02  
-1.750000e+00  -2.500000e-01  -1.750000e+00  0  3144 0  -4.761502e+00 2.093057e+00 -6.462695e+00   6.653901e-01 -3.148349e-01 -9.853467e-01 2.000000e-01  6.250000e-02  
-2.000000e+00  -2.500000e-01  -1.750000e+00  0  3143 0  1.277761e+00 -3.573937e+00 8.129891e-01   -1.624945e-01 -2.653834e-01 -2.112238e-03 2.000000e-01  6.250000e-02  
-1.500000e+00  -2.500000e-01  -2.000000e+00  0  3057 0  -1.614787e+00 8.378356e+00 -8.933259e-06   -2.612262e-06 7.313394e-07 -1.379968e-02 2.000000e-01  6.250000e-02  
-1.500000e+00  -2.500000e-01  -1.750000e+00  0  3145 0  -4.880852e+00 3.808458e+00 5.285895e+00   8.424416e-01 -2.259813e-01 -1.004983e-01 2.000000e-01  6.250000e-02  
-1.250000e+00  -2.500000e-01  -2.000000e+00  0  3811 0  1.665108e+00 9.436628e-01 1.004682e-06   -5.940561e-07 -4.809604e-07 -1.094866e+00 2.000000e-01  6.250000e-02  
-1.250000e+00  -2.500000e-01  -1.750000e+00  0  3875 0  -1.534771e+00 -4.470777e-01 -4.477631e+00   -4.456507e-01 8.575833e-01 -2.946866e-01 2.000000e-01  6.250000e-02  
-1.000000e+00  -2.500000e-01  -2.000000e+00  0  3812 0  -3.024430e+00 1.197296e+01 -7.500069e-07   -7.845188e-08 3.268301e-07 -1.135037e+00 2.000000e-01  6.250000e-02  
-1.000000e+00  -2.500000e-01  -1.750000e+00  0  3876 0  4.734246e+00 7.521922e+00 -3.865432e-01   -8.211500e-01 -1.612709e+00 -5.204624e-01 2.000000e-01  6.250000e-02  
-7.500000e-01  -2.500000e-01  -2.000000e+00  0  3813 0  3.336247e+00 -1.019883e+01 -6.969216e-07   1.017311e-06 6.513170e-08 -1.102639e-01 2.000000e-01  6.250000e-02  
-7.500000e-01  -2.500000e-01  -1.750000e+00  0  3877 0  3.177840e+00 2.563559e+00 -9.477088e-01   1.426545e-01 -1.026081e+00 7.982094e-01 2.000000e-01  6.250000e-02  
-5.000000e-01  -2.500000e-01  -2.000000e+00  0  3814 0  1.164175e+00 1.417961e+00 4.668108e-07   3.981612e-07 9.150397e-08 -4.680992e-01 2.000000e-01  6.250000e-02  
-5.000000e-01  -2.500000e-01  -1.750000e+00  0  3878 0  2.136987e+00 5.849525e+00 1.443881e+00   7.077479e-01 7.227408e-01 3.845199e-01 2.000000e-01  6.250000e-02  
-2.500000e-01  -2.500000e-01  -2.000000e+00  0  3815 0  -1.466042e+00 -1.466042e+00 -1.777686e-06   -1.572912e-07 1.574226e-07 9.162976e-07 2.000000e-01  6.250000e-02  
-2.500000e-01  -2.500000e-01  -1.750000e+00  0  3879 0  3.746174e+00 3.746174e+00 4.931056e+00   2.340577e-01 -2.340577e-01 6.371082e-07 2.000000e-01  6.250000e-02  
0.000000e+00  -2.500000e-01  -2.000000e+00  0  3816 0  -4.366083e-01 -2.582118e+00 2.238055e-07   -1.148117e-09 1.303870e-07 1.446799e-01 2.000000e-01  6.250000e-02  
0.000000e+00  -2.500000e-01  -1.750000e+00  0  3880 0  3.425606e-01 -1.214039e-01 -5.210536e+00   -5.559412e-03 -1.804754e-01 7.964702e-02 2.000000e-01  6.250000e-02  
-1.750000e+00  0.000000e+00  -2.000000e+00  0  3067 0  -4.244905e+00 9.080443e-01 -1.779592e-05   1.823937e-06 -1.180285e-06 6.280900e-01 2.000000e-01  6.250000e-02  
-2.000000e+00  0.000000e+00  -2.000000e+00  0  3066 0  5.650729e-06 2.834498e-06 1.115601e-06   -5.294743e-09 -1.579577e-08 6.646387e-01 2.000000e-01  6.250000e-02  
-1.750000e+00  0.000000e+00  -1.750000e+00  0  3155 0  4.366641e+00 -1.860120e+00 4.950633e+00   2.369090e-01 6.216273e-02 3.507199e-01 2.000000e-01  6.250000e-02  
-2.000000e+00  0.000000e+00  -1.750000e+00  0  3154 0  -1.714668e-05 1.382807e-06 -4.960271e+00   9.290451e-07 6.862322e-07 4.725862e-01 2.000000e-01  6.250000e-02  
-1.500000e+00  0.000000e+00  -2.000000e+00  0  3068 0  8.138344e-02 8.686862e-01 2.479865e-06   2.252326e-06 -3.982259e-07 3.965258e-01 2.000000e-01  6.250000e-02  
-1.500000e+00  0.000000e+00  -1.750000e+00  0  3156 0  -1.983433e-01 -1.935077e+00 3.562957e+00   1.149629e-01 7.643535e-01 3.428955e-01 2.000000e-01  6.250000e-02  
-1.250000e+00  0.000000e+00  -2.000000e+00  0  3819 0  -1.091292e+01 6.844866e-03 -2.561649e-06   5.027392e-07 7.624624e-07 -2.835036e-01 2.000000e-01  6.250000e-02  
-1.250000e+00  0.000000e+00  -1.750000e+00  0  3883 0  -7.586604e+00 1.130333e+00 1.878444e+00   -7.176127e-02 4.774933e-01 -7.878328e-02 2.000000e-01  6.250000e-02  
-1.000000e+00  0.000000e+00  -2.000000e+00  0  3820 0  1.296724e+01 3.119073e+00 1.993453e-07   -2.510905e-07 1.898525e-07 -1.664845e-01 2.000000e-01  6.250000e-02  
-1.000000e+00  0.000000e+00  -1.750000e+00  0  3884 0  -4.879199e+00 -7.868910e-02 -4.195274e+00   -9.958353e-02 -2.525075e+00 -9.018299e-02 2.000000e-01  6.250000e-02  
-7.500000e-01  0.000000e+00  -2.000000e+00  0  3821 0  -1.256017e+00 8.608656e-01 1.095686e-06   1.734191e-07 1.362407e-07 3.242824e-01 2.000000e-01  6.250000e-02  
-7.500000e-01  0.000000e+00  -1.750000e+00  0  3885 0  -4.430669e-02 8.160999e-01 -4.709355e+00   -1.097353e-01 -2.544726e+00 2.022890e-01 2.000000e-01  6.250000e-02  
-5.000000e-01  0.000000e+00  -2.000000e+00  0  3822 0  -7.064995e+00 -1.478457e+00 -9.849552e-07   3.719253e-08 3.878737e-07 -3.817093e-02 2.000000e-01  6.250000e-02  
-5.000000e-01  0.000000e+00  -1.750000e+00  0  3886 0  -1.764450e+00 -8.253261e-02 1.206107e+00   3.438454e-02 -5.067120e-02 -9.442630e-02 2.000000e-01  6.250000e-02  
-2.500000e-01  0.000000e+00  -2.000000e+00  0  3823 0  -2.582118e+00 -4.366070e-01 2.050652e-07   -1.319610e-07 3.476792e-10 -1.446795e-01 2.000000e-01  6.250000e-02  
-2.500000e-01  0.000000e+00  -1.750000e+00  0  3887 0  -1.214037e-01 3.425602e-01 -5.210536e+00   1.804743e-01 5.559249e-03 -7.964677e-02 2.000000e-01  6.250000e-02  
0.000000e+00  0.000000e+00  -2.000000e+00  0  3824 0  1.821699e-06 -4.457831e-08 -2.279489e-06   1.780859e-09 -2.077509e-09 -5.066244e-08 2.000000e-01  6.250000e-02  
0.000000e+00  0.000000e+00  -1.750000e+00  0  3888 0  -4.282490e-07 1.107758e-07 -1.078322e+00   8.477016e-10 -4.724294e-07 -4.058828e-08 2.000000e-01  6.250000e-02  
-2.000000e+00  -2.000000e+00  -1.500000e+00  0  1306 0  1.338082e-05 -1.624977e-05 8.165267e+00   5.735897e-06 2.833835e-05 5.871433e-07 2.000000e-01  6.250000e-02  
-1.750000e+00  -2.000000e+00  -1.500000e+00  0  1307 0  2.790919e+00 8.285627e-01 3.711322e+00   5.008576e-02 -1.573869e+00 -6.336572e-01 2.000000e-01  6.250000e-02  
-1.750000e+00  -1.750000e+00  -1.500000e+00  0  1318 0  -1.392263e+00 -1.392231e+00 1.180436e+00   1.293519e+00 -1.293504e+00 -8.880193e-06 2.000000e-01  6.250000e-02  
-2.000000e+00  -1.750000e+00  -1.500000e+00  0  1317 0  8.285637e-01 2.790867e+00 3.711352e+00   1.573878e+00 -5.006720e-02 6.336540e-01 2.000000e-01  6.250000e-02  
-1.500000e+00  -2.000000e+00  -1.500000e+00  0  1308 0  -6.620578e+00 3.392616e+00 -8.028167e+00   -1.244756e-01 2.132814e-01 -3.705789e-01 2.000000e-01  6.250000e-02  
-1.500000e+00  -1.750000e+00  -1.500000e+00  0  1319 0  -4.984356e+00 -5.267229e-01 -2.853296e+00   1.175142e-01 7.761145e-01 -4.281793e-01 2.000000e-01  6.250000e-02  
-1.250000e+00  -2.000000e+00  -1.500000e+00  0  2275 0  -2.125241e+00 -3.642273e-01 2.900550e-01   -4.500664e-01 3.455678e-01 1.409118e-01 2.000000e-01  6.250000e-02  
-1.250000e+00  -1.750000e+00  -1.500000e+00  0  2283 0  3.545920e+00 -2.942805e-01 -1.928965e+00   -6.637600e-01 8.506908e-01 -1.069788e+00 2.000000e-01  6.250000e-02  
-1.000000e+00  -2.000000e+00  -1.500000e+00  0  2276 0  9.044160e+00 -3.272178e-02 3.523571e+00   -1.869182e-01 -1.262901e+00 -7.473972e-03 2.000000e-01  6.250000e-02  
-1.000000e+00  -1.750000e+00  -1.500000e+00  0  2284 0  -1.688793e+00 1.636310e+00 -1.087121e+00   1.415580e-01 -2.394394e+00 -1.260106e+00 2.000000e-01  6.250000e-02  
-7.500000e-01  -2.000000e+00  -1.500000e+00  0  2277 0  3.885315e+00 4.961207e-01 4.043138e+00   -1.241891e-01 -2.967196e+00 -1.654956e-01 2.000000e-01  6.250000e-02  
-7.500000e-01  -1.750000e+00  -1.500000e+00  0  2285 0  7.627304e+00 3.071688e+00 9.458507e-01   8.732127e-01 -3.367954e+00 -3.013847e-01 2.000000e-01  6.250000e-02  
-5.000000e-01  -2.000000e+00  -1.500000e+00  0  2278 0  3.432355e+00 4.987503e-01 2.739280e+00   -3.150565e-01 -1.632327e+00 -3.036275e-01 2.000000e-01  6.250000e-02  
-5.000000e-01  -1.750000e+00  -1.500000e+00  0  2286 0  -5.747293e+00 5.225169e+00 -5.276879e+00   -1.450228e-01 -7.021282e-01 7.530268e-01 2.000000e-01  6.250000e-02  
-2.500000e-01  -2.000000e+00  -1.500000e+00  0  2279 0  8.486301e+00 -6.761263e-01 -1.307197e+00   -8.534167e-02 4.845409e-01 -5.493961e-02 2.000000e-01  6.250000e-02  