VARIABLES="X", "Y", "Z", "Maximum Refinment Level", "Temp_ID", "Thread","Ex (corner node)","Ey (corner node)","Ez (corner node)","Bx (center node)","By (center node)","Bz (center node)", "Local Time Step" , "log10(Local Particle Weight)" 
ZONE N=4913, E=4096, DATAPACKING=POINT, ZONETYPE=FEBRICK
-2.000000e+00  -2.000000e+00  -2.000000e+00  0  1064 0  5.296692e-05 -3.011575e-05 -4.037224e-06   -7.430340e-08 5.303483e-08 -4.559423e-06 2.000000e-01  6.250000e-02  
-1.750000e+00  -2.000000e+00  -2.000000e+00  0  1065 0  5.357309e-02 -7.091082e-01 -4.100263e-05   -8.789527e-07 4.214164e-06 4.756197e-01 2.000000e-01  6.250000e-02  
-1.750000e+00  -1.750000e+00  -2.000000e+00  0  1076 0  -3.535077e+00 -3.535060e+00 2.336086e-05   -1.623123e-06 1.539491e-06 -9.600744e-06 2.000000e-01  6.250000e-02  
-2.000000e+00  -1.750000e+00  -2.000000e+00  0  1075 0  -7.091065e-01 5.340667e-02 -4.061921e-05   -4.152823e-06 8.527498e-07 -4.756445e-01 2.000000e-01  6.250000e-02  
-2.000000e+00  -2.000000e+00  -1.750000e+00  0  1185 0  -8.792594e-05 -7.466408e-05 4.139004e+00   -1.207221e-05 3.504939e-05 -2.051457e-06 2.000000e-01  6.250000e-02  
-1.750000e+00  -2.000000e+00  -1.750000e+00  0  1186 0  -5.328536e+00 -3.471809e+00 -2.654394e-01   -4.451024e-01 9.063505e-02 -4.790918e-02 2.000000e-01  6.250000e-02  
-1.750000e+00  -1.750000e+00  -1.750000e+00  0  1197 0  -5.398323e+00 -5.398304e+00 -4.876115e+00   -4.184001e-01 4.184085e-01 -5.233437e-06 2.000000e-01  6.250000e-02  
-2.000000e+00  -1.750000e+00  -1.750000e+00  0  1196 0  -3.471809e+00 -5.328541e+00 -2.654734e-01   -9.061755e-02 4.451189e-01 4.789330e-02 2.000000e-01  6.250000e-02  
-1.500000e+00  -2.000000e+00  -2.000000e+00  0  1066 0  9.498120e+00 1.021865e+00 1.311520e-05   -3.864060e-07 -1.166434e-06 2.530047e-01 2.000000e-01  6.250000e-02  
-1.500000e+00  -1.750000e+00  -2.000000e+00  0  1077 0  4.819667e+00 2.345755e+00 -1.570192e-05   -3.382549e-06 1.468348e-06 -8.552143e-01 2.000000e-01  6.250000e-02  
-1.500000e+00  -2.000000e+00  -1.750000e+00  0  1187 0  4.612145e+00 2.799916e-01 3.264945e+00   -3.291674e-01 1.810830e+00 -1.071010e-01 2.000000e-01  6.250000e-02  
-1.500000e+00  -1.750000e+00  -1.750000e+00  0  1198 0  4.488082e+00 3.298269e+00 2.345925e+00   -2.719040e-01 2.127221e+00 -8.781774e-01 2.000000e-01  6.250000e-02  
-1.250000e+00  -2.000000e+00  -2.000000e+00  0  2099 0  9.399423e+00 2.031375e+00 -9.162728e-06   -1.244990e-06 4.059715e-06 3.173582e-01 2.000000e-01  6.250000e-02  
-1.250000e+00  -1.750000e+00  -2.000000e+00  0  2107 0  -4.924096e+00 -3.287152e+00 9.347176e-06   -4.563761e-06 2.981748e-06 -5.306068e-02 2.000000e-01  6.250000e-02  
-1.250000e+00  -2.000000e+00  -1.750000e+00  0  2187 0  -3.446462e+00 -7.997516e-03 -2.172481e+00   -4.895480e-01 4.070108e-01 2.196673e-01 2.000000e-01  6.250000e-02  
-1.250000e+00  -1.750000e+00  -1.750000e+00  0  2195 0  -1.031946e+01 4.639604e+00 3.769947e+00   2.614168e-02 6.672914e-01 -2.866363e-01 2.000000e-01  6.250000e-02  
-1.000000e+00  -2.000000e+00  -2.000000e+00  0  2100 0  7.181448e+00 3.076364e-01 -2.725627e-05   -6.406586e-07 -9.294147e-08 1.312621e-01 2.000000e-01  6.250000e-02  
-1.000000e+00  -1.750000e+00  -2.000000e+00  0  2108 0  -9.402413e-01 6.476517e+00 1.088518e-05   -1.186771e-06 1.784392e-06 -2.885598e-01 2.000000e-01  6.250000e-02  
-1.000000e+00  -2.000000e+00  -1.750000e+00  0  2188 0  -4.128858e+00 -1.127163e+00 4.356680e+00   -3.349723e-01 -3.790024e-02 1.217307e-02 2.000000e-01  6.250000e-02  
-1.000000e+00  -1.750000e+00  -1.750000e+00  0  2196 0  -3.766364e-01 3.060424e+00 2.441331e+00   4.157870e-01 8.829299e-02 -7.689039e-01 2.000000e-01  6.250000e-02  
-7.500000e-01  -2.000000e+00  -2.000000e+00  0  2101 0  -7.802709e+00 2.038266e+00 2.109827e-05   8.114060e-07 2.123439e-06 -2.250978e-02 2.000000e-01  6.250000e-02  
-7.500000e-01  -1.750000e+00  -2.000000e+00  0  2109 0  6.744662e+00 1.075078e+01 1.006963e-05   -1.624225e-06 4.809796e-06 -1.343104e-01 2.000000e-01  6.250000e-02  
-7.500000e-01  -2.000000e+00  -1.750000e+00  0  2189 0  7.750922e+00 -1.219393e+00 9.708210e+00   1.060144e-01 1.183631e-01 -2.735134e-01 2.000000e-01  6.250000e-02  
-7.500000e-01  -1.750000e+00  -1.750000e+00  0  2197 0  -7.606140e+00 -2.203674e+00 -2.951426e+00   6.426780e-01 4.034039e-01 -3.629908e-01 2.000000e-01  6.250000e-02  
-5.000000e-01  -2.000000e+00  -2.000000e+00  0  2102 0  -2.764184e-01 -6.317427e+00 4.433601e-06   -2.616060e-07 3.666516e-06 4.876269e-01 2.000000e-01  6.250000e-02  
-5.000000e-01  -1.750000e+00  -2.000000e+00  0  2110 0  2.104860e+00 -1.222988e+00 -1.294471e-05   -2.210240e-06 7.647325e-06 1.261600e+00 2.000000e-01  6.250000e-02  
-5.000000e-01  -2.000000e+00  -1.750000e+00  0  2190 0  -1.193043e+00 1.884430e+00 3.979990e+00   4.157742e-01 -7.529408e-01 2.315681e-01 2.000000e-01  6.250000e-02  
-5.000000e-01  -1.750000e+00  -1.750000e+00  0  2198 0  2.111198e+00 -2.324230e+00 -3.908007e+00   5.509382e-01 -1.112210e-01 8.525575e-01 2.000000e-01  6.250000e-02  
-2.500000e-01  -2.000000e+00  -2.000000e+00  0  2103 0  8.145066e+00 1.235708e+00 -3.016199e-06   -7.017064e-07 1.831965e-06 -2.308908e-01 2.000000e-01  6.250000e-02  
-2.500000e-01  -1.750000e+00  -2.000000e+00  0  2111 0  -4.561617e+00 2.109422e+00 -1.667233e-06   -5.758145e-07 2.845126e-06 -1.935430e-02 2.000000e-01  6.250000e-02  
-2.500000e-01  -2.000000e+00  -1.750000e+00  0  2191 0  -3.573950e+00 1.277751e+00 8.129452e-01   2.653942e-01 1.624735e-01 2.114381e-03 2.000000e-01  6.250000e-02  
-2.500000e-01  -1.750000e+00  -1.750000e+00  0  2199 0  2.092935e+00 -4.761495e+00 -6.462676e+00   3.148421e-01 -6.654155e-01 9.853809e-01 2.000000e-01  6.250000e-02  
0.000000e+00  -2.000000e+00  -2.000000e+00  0  2104 0  -1.413322e-04 1.020929e-04 3.826772e-07   -1.284196e-08 7.231266e-09 -6.646332e-01 2.000000e-01  6.250000e-02  
0.000000e+00  -1.750000e+00  -2.000000e+00  0  2112 0  9.080494e-01 -4.245169e+00 -9.082499e-06   8.176394e-07 -8.416514e-07 -6.280746e-01 2.000000e-01  6.250000e-02  
0.000000e+00  -2.000000e+00  -1.750000e+00  0  2192 0  1.733210e-05 -1.125319e-05 -4.960371e+00   1.975089e-05 -1.265119e-05 -4.725842e-01 2.000000e-01  6.250000e-02  
0.000000e+00  -1.750000e+00  -1.750000e+00  0  2200 0  -1.860162e+00 4.366491e+00 4.950510e+00   -6.214846e-02 -2.369142e-01 -3.507107e-01 2.000000e-01  6.250000e-02  
-1.750000e+00  -1.500000e+00  -2.000000e+00  0  1087 0  2.345779e+00 4.819687e+00 -1.523154e-05   -1.465525e-06 3.283352e-06 8.552053e-01 2.000000e-01  6.250000e-02  
-2.000000e+00  -1.500000e+00  -2.000000e+00  0  1086 0  1.021875e+00 9.498158e+00 1.310991e-05   1.268306e-06 3.885296e-07 -2.530266e-01 2.000000e-01  6.250000e-02  
-1.750000e+00  -1.500000e+00  -1.750000e+00  0  1208 0  3.298298e+00 4.488125e+00 2.345942e+00   -2.127222e+00 2.719071e-01 8.781723e-01 2.000000e-01  6.250000e-02  
-2.000000e+00  -1.500000e+00  -1.750000e+00  0  1207 0  2.800118e-01 4.612155e+00 3.264940e+00   -1.810827e+00 3.291715e-01 1.070901e-01 2.000000e-01  6.250000e-02  
-1.500000e+00  -1.500000e+00  -2.000000e+00  0  1088 0  -6.674358e+00 -6.674337e+00 -2.388799e-05   -7.853121e-06 7.810202e-06 5.463291e-06 2.000000e-01  6.250000e-02  
-1.500000e+00  -1.500000e+00  -1.750000e+00  0  1209 0  -4.015413e+00 -4.015416e+00 2.018182e-01   -5.666379e-01 5.666356e-01 3.079593e-06 2.000000e-01  6.250000e-02  
-1.250000e+00  -1.500000e+00  -2.000000e+00  0  2115 0  -1.261434e+00 2.167999e+00 -2.024913e-06   -1.456321e-06 3.651278e-06 -5.116364e-01 2.000000e-01  6.250000e-02  
-1.250000e+00  -1.500000e+00  -1.750000e+00  0  2203 0  3.471166e+00 -3.805197e+00 2.466099e+00   1.171215e+00 5.960466e-01 -6.591762e-01 2.000000e-01  6.250000e-02  
-1.000000e+00  -1.500000e+00  -2.000000e+00  0  2116 0  4.476503e+00 1.988382e+00 -3.906917e-07   3.400367e-06 3.049434e-06 7.651628e-01 2.000000e-01  6.250000e-02  
-1.000000e+00  -1.500000e+00  -1.750000e+00  0  2204 0  -2.314367e+00 -6.585737e+00 -8.250749e+00   5.214615e-01 5.087328e-01 1.537525e+00 2.000000e-01  6.250000e-02  
-7.500000e-01  -1.500000e+00  -2.000000e+00  0  2117 0  4.580355e+00 6.696477e+00 -6.492694e-06   6.334317e-07 3.315166e-06 2.544837e+00 2.000000e-01  6.250000e-02  
-7.500000e-01  -1.500000e+00  -1.750000e+00  0  2205 0  6.604905e+00 1.916165e+00 4.162498e+00   -8.699603e-01 9.200792e-01 2.708919e+00 2.000000e-01  6.250000e-02  
-5.000000e-01  -1.500000e+00  -2.000000e+00  0  2118 0  5.978347e+00 1.555213e+00 -1.573610e-05   -1.196774e-06 5.293543e-06 1.171783e+00 2.000000e-01  6.250000e-02  
-5.000000e-01  -1.500000e+00  -1.750000e+00  0  2206 0  -1.770262e+00 -6.347510e+00 5.997440e+00   -1.630132e-01 -2.765497e-01 6.788772e-01 2.000000e-01  6.250000e-02  
-2.500000e-01  -1.500000e+00  -2.000000e+00  0  2119 0  8.378335e+00 -1.614767e+00 -1.580017e-06   1.123686e-07 1.356719e-06 1.382569e-02 2.000000e-01  6.250000e-02  
-2.500000e-01  -1.500000e+00  -1.750000e+00  0  2207 0  3.808432e+00 -4.880847e+00 5.285880e+00   2.259785e-01 -8.424592e-01 1.005167e-01 2.000000e-01  6.250000e-02  
0.000000e+00  -1.500000e+00  -2.000000e+00  0  2120 0  8.686795e-01 8.141456e-02 1.708540e-06   6.021769e-07 -1.163335e-06 -3.965099e-01 2.000000e-01  6.250000e-02  
0.000000e+00  -1.500000e+00  -1.750000e+00  0  2208 0  -1.935123e+00 -1.983494e-01 3.562977e+00   -7.643559e-01 -1.149578e-01 -3.428879e-01 2.000000e-01  6.250000e-02  
-1.750000e+00  -1.250000e+00  -2.000000e+00  0  3012 0  -3.287165e+00 -4.924065e+00 9.540695e-06   -2.933715e-06 4.568797e-06 5.304569e-02 2.000000e-01  6.250000e-02  
-2.000000e+00  -1.250000e+00  -2.000000e+00  0  3011 0  2.031265e+00 9.399357e+00 -8.891578e-06   -3.999887e-06 1.249397e-06 -3.173543e-01 2.000000e-01  6.250000e-02  
-1.750000e+00  -1.250000e+00  -1.750000e+00  0  3100 0  4.639584e+00 -1.031946e+01 3.769928e+00   -6.672860e-01 -2.614061e-02 2.866263e-01 2.000000e-01  6.250000e-02  
-2.000000e+00  -1.250000e+00  -1.750000e+00  0  3099 0  -7.989557e-03 -3.446443e+00 -2.172496e+00   -4.069969e-01 4.895488e-01 -2.196640e-01 2.000000e-01  6.250000e-02  
-1.500000e+00  -1.250000e+00  -2.000000e+00  0  3013 0  2.168005e+00 -1.261431e+00 -2.076040e-06   -3.653667e-06 1.444036e-06 5.116345e-01 2.000000e-01  6.250000e-02  
-1.500000e+00  -1.250000e+00  -1.750000e+00  0  3101 0  -3.805206e+00 3.471164e+00 2.466105e+00   -5.960460e-01 -1.171216e+00 6.591758e-01 2.000000e-01  6.250000e-02  
-1.250000e+00  -1.250000e+00  -2.000000e+00  0  3779 0  -1.427712e+00 -1.427712e+00 -2.924207e-06   4.253324e-08 -8.215237e-08 1.439312e-07 2.000000e-01  6.250000e-02  
-1.250000e+00  -1.250000e+00  -1.750000e+00  0  3843 0  -6.130481e+00 -6.130476e+00 -8.296609e+00   1.025921e-01 -1.025931e-01 8.570725e-07 2.000000e-01  6.250000e-02  
-1.000000e+00  -1.250000e+00  -2.000000e+00  0  3780 0  -3.560788e-01 1.404072e+00 4.100220e-06   2.121461e-06 1.729220e-06 3.810635e-02 2.000000e-01  6.250000e-02  
-1.000000e+00  -1.250000e+00  -1.750000e+00  0  3844 0  -3.911190e+00 -4.390320e+00 -8.556375e-01   4.292068e-01 7.673067e-01 1.764854e-01 2.000000e-01  6.250000e-02  
-7.500000e-01  -1.250000e+00  -2.000000e+00  0  3781 0  5.595693e-02 -7.875894e+00 3.861167e-06   1.706207e-06 1.114332e-06 1.645728e+00 2.000000e-01  6.250000e-02  
-7.500000e-01  -1.250000e+00  -1.750000e+00  0  3845 0  1.032961e+00 1.073421e+00 -4.791220e-02   2.919409e-01 2.086243e+00 6.748622e-01 2.000000e-01  6.250000e-02  
-5.000000e-01  -1.250000e+00  -2.000000e+00  0  3782 0  -6.938145e+00 5.385884e+00 -3.619390e-06   5.555627e-07 1.387761e-06 1.225485e+00 2.000000e-01  6.250000e-02  
-5.000000e-01  -1.250000e+00  -1.750000e+00  0  3846 0  3.220582e-01 4.247365e-01 -4.890573e+00   -3.341822e-01 7.562903e-01 2.453571e-01 2.000000e-01  6.250000e-02  
-2.500000e-01  -1.250000e+00  -2.000000e+00  0  3783 0  9.436327e-01 1.665095e+00 -6.871432e-09   2.142856e-07 3.266895e-07 1.094857e+00 2.000000e-01  6.250000e-02  
-2.500000e-01  -1.250000e+00  -1.750000e+00  0  3847 0  -4.471057e-01 -1.534777e+00 -4.477625e+00   -8.575919e-01 4.456466e-01 2.946767e-01 2.000000e-01  6.250000e-02  
0.000000e+00  -1.250000e+00  -2.000000e+00  0  3784 0  6.843339e-03 -1.091289e+01 -1.366353e-06   -3.161730e-07 -3.223621e-07 2.835081e-01 2.000000e-01  6.250000e-02  
0.000000e+00  -1.250000e+00  -1.750000e+00  0  3848 0  1.130371e+00 -7.586612e+00 1.878454e+00   -4.774987e-01 7.177057e-02 7.878299e-02 2.000000e-01  6.250000e-02  
-1.750000e+00  -1.000000e+00  -2.000000e+00  0  3023 0  6.476495e+00 -9.402306e-01 1.100773e-05   -1.812762e-06 1.196661e-06 2.885491e-01 2.000000e-01  6.250000e-02  
-2.000000e+00  -1.000000e+00  -2.000000e+00  0  3022 0  3.077738e-01 7.181365e+00 -2.761065e-05   9.051131e-08 6.066067e-07 -1.312600e-01 2.000000e-01  6.250000e-02  
-1.750000e+00  -1.000000e+00  -1.750000e+00  0  3111 0  3.060430e+00 -3.766509e-01 2.441327e+00   -8.828374e-02 -4.157856e-01 7.688955e-01 2.000000e-01  6.250000e-02  
-2.000000e+00  -1.000000e+00  -1.750000e+00  0  3110 0  -1.127178e+00 -4.128861e+00 4.356686e+00   3.791540e-02 3.349798e-01 -1.217020e-02 2.000000e-01  6.250000e-02  
-1.500000e+00  -1.000000e+00  -2.000000e+00  0  3024 0  1.988395e+00 4.476468e+00 -2.729244e-07   -3.049854e-06 -3.394632e-06 -7.651641e-01 2.000000e-01  6.250000e-02  
-1.500000e+00  -1.000000e+00  -1.750000e+00  0  3112 0  -6.585724e+00 -2.314349e+00 -8.250743e+00   -5.087293e-01 -5.214609e-01 -1.537526e+00 2.000000e-01  6.250000e-02  
-1.250000e+00  -1.000000e+00  -2.000000e+00  0  3787 0  1.404069e+00 -3.560646e-01 4.038253e-06   -1.722116e-06 -2.152260e-06 -3.810672e-02 2.000000e-01  6.250000e-02  
-1.250000e+00  -1.000000e+00  -1.750000e+00  0  3851 0  -4.390319e+00 -3.911187e+00 -8.556325e-01   -7.673067e-01 -4.292082e-01 -1.764848e-01 2.000000e-01  6.250000e-02  
-1.000000e+00  -1.000000e+00  -2.000000e+00  0  3788 0  4.733505e+00 4.733508e+00 1.830260e-06   -3.816041e-07 3.631672e-07 1.262464e-07 2.000000e-01  6.250000e-02  
-1.000000e+00  -1.000000e+00  -1.750000e+00  0  3852 0  -1.811017e+00 -1.811017e+00 -6.234464e-01   -2.501633e-01 2.501624e-01 -1.755994e-07 2.000000e-01  6.250000e-02  
-7.500000e-01  -1.000000e+00  -2.000000e+00  0  3789 0  7.095819e+00 -5.058084e-01 2.546033e-06   -2.189813e-07 1.068946e-06 -2.550372e+00 2.000000e-01  6.250000e-02  
-7.500000e-01  -1.000000e+00  -1.750000e+00  0  3853 0  2.683773e+00 -1.196223e+00 2.485326e+00   5.236961e-01 2.902658e+00 -2.653748e+00 2.000000e-01  6.250000e-02  
-5.000000e-01  -1.000000e+00  -2.000000e+00  0  3790 0  4.500576e+00 -3.267855e+00 3.202775e-07   -4.619572e-07 -2.146294e-08 -1.382097e+00 2.000000e-01  6.250000e-02  
-5.000000e-01  -1.000000e+00  -1.750000e+00  0  3854 0  1.071175e+00 5.292654e+00 9.180707e-02   7.288469e-01 1.994221e+00 -9.610978e-01 2.000000e-01  6.250000e-02  
-2.500000e-01  -1.000000e+00  -2.000000e+00  0  3791 0  1.197297e+01 -3.024436e+00 -5.066545e-07   -2.287213e-07 4.558588e-08 1.135029e+00 2.000000e-01  6.250000e-02  
-2.500000e-01  -1.000000e+00  -1.750000e+00  0  3855 0  7.521915e+00 4.734247e+00 -3.865385e-01   1.612707e+00 8.211472e-01 5.204596e-01 2.000000e-01  6.250000e-02  
0.000000e+00  -1.000000e+00  -2.000000e+00  0  3792 0  3.119083e+00 1.296722e+01 -1.101086e-09   -1.582849e-07 1.159118e-07 1.664807e-01 2.000000e-01  6.250000e-02  
0.000000e+00  -1.000000e+00  -1.750000e+00  0  3856 0  -7.868987e-02 -4.879195e+00 -4.195276e+00   2.525068e+00 9.958834e-02 9.018324e-02 2.000000e-01  6.250000e-02  
-1.750000e+00  -7.500000e-01  -2.000000e+00  0  3034 0  1.075079e+01 6.744651e+00 1.012187e-05   -4.812439e-06 1.620396e-06 1.343030e-01 2.000000e-01  6.250000e-02  
-2.000000e+00  -7.500000e-01  -2.000000e+00  0  3033 0  2.038244e+00 -7.802801e+00 2.151090e-05   -2.125746e-06 -8.302119e-07 2.249983e-02 2.000000e-01  6.250000e-02  
-1.750000e+00  -7.500000e-01  -1.750000e+00  0  3122 0  -2.203699e+00 -7.606100e+00 -2.951442e+00   -4.034020e-01 -6.426772e-01 3.629861e-01 2.000000e-01  6.250000e-02  
-2.000000e+00  -7.500000e-01  -1.750000e+00  0  3121 0  -1.219388e+00 7.750944e+00 9.708209e+00   -1.183610e-01 -1.060110e-01 2.735086e-01 2.000000e-01  6.250000e-02  
-1.500000e+00  -7.500000e-01  -2.000000e+00  0  3035 0  6.696460e+00 4.580358e+00 -6.430715e-06   -3.298634e-06 -6.280340e-07 -2.544835e+00 2.000000e-01  6.250000e-02  
-1.500000e+00  -7.500000e-01  -1.750000e+00  0  3123 0  1.916167e+00 6.604912e+00 4.162500e+00   -9.200777e-01 8.699626e-01 -2.708916e+00 2.000000e-01  6.250000e-02  
-1.250000e+00  -7.500000e-01  -2.000000e+00  0  3795 0  -7.875901e+00 5.596313e-02 3.883208e-06   -1.096121e-06 -1.710583e-06 -1.645729e+00 2.000000e-01  6.250000e-02  
-1.250000e+00  -7.500000e-01  -1.750000e+00  0  3859 0  1.073424e+00 1.032952e+00 -4.790822e-02   -2.086241e+00 -2.919415e-01 -6.748629e-01 2.000000e-01  6.250000e-02  
-1.000000e+00  -7.500000e-01  -2.000000e+00  0  3796 0  -5.058075e-01 7.095819e+00 2.596092e-06   -1.075060e-06 2.049989e-07 2.550373e+00 2.000000e-01  6.250000e-02  
-1.000000e+00  -7.500000e-01  -1.750000e+00  0  3860 0  -1.196228e+00 2.683775e+00 2.485326e+00   -2.902658e+00 -5.236964e-01 2.653748e+00 2.000000e-01  6.250000e-02  
-7.500000e-01  -7.500000e-01  -2.000000e+00  0  3797 0  -2.403109e+00 -2.403106e+00 -4.151501e-07   -4.325067e-07 4.237024e-07 5.069801e-08 2.000000e-01  6.250000e-02  
-7.500000e-01  -7.500000e-01  -1.750000e+00  0  3861 0  -6.009246e+00 -6.009245e+00 -1.543243e+00   -1.754881e+00 1.754881e+00 3.269153e-07 2.000000e-01  6.250000e-02  
-5.000000e-01  -7.500000e-01  -2.000000e+00  0  3798 0  4.174723e+00 -2.568200e-01 3.294792e-07   8.415158e-09 -6.042170e-07 -6.419697e-01 2.000000e-01  6.250000e-02  
-5.000000e-01  -7.500000e-01  -1.750000e+00  0  3862 0  2.700410e-01 -4.285512e+00 -9.620164e-01   -6.428927e-01 1.513934e+00 -6.486667e-01 2.000000e-01  6.250000e-02  
-2.500000e-01  -7.500000e-01  -2.000000e+00  0  3799 0  -1.019885e+01 3.336224e+00 -2.418781e-07   1.509575e-08 -4.746796e-07 1.102619e-01 2.000000e-01  6.250000e-02  
-2.500000e-01  -7.500000e-01  -1.750000e+00  0  3863 0  2.563557e+00 3.177841e+00 -9.477153e-01   1.026080e+00 -1.426561e-01 -7.982113e-01 2.000000e-01  6.250000e-02  
0.000000e+00  -7.500000e-01  -2.000000e+00  0  3800 0  8.608696e-01 -1.256004e+00 5.650312e-07   3.664617e-10 -7.992172e-08 -3.242859e-01 2.000000e-01  6.250000e-02  
0.000000e+00  -7.500000e-01  -1.750000e+00  0  3864 0  8.161063e-01 -4.430395e-02 -4.709353e+00   2.544721e+00 1.097365e-01 -2.022931e-01 2.000000e-01  6.250000e-02  
-1.750000e+00  -5.000000e-01  -2.000000e+00  0  3045 0  -1.222998e+00 2.104869e+00 -1.323191e-05   -7.653568e-06 2.223997e-06 -1.261606e+00 2.000000e-01  6.250000e-02  
-2.000000e+00  -5.000000e-01  -2.000000e+00  0  3044 0  -6.317397e+00 -2.764231e-01 4.457583e-06   -3.661244e-06 2.683829e-07 -4.876249e-01 2.000000e-01  6.250000e-02  
-1.750000e+00  -5.000000e-01  -1.750000e+00  0  3133 0  -2.324217e+00 2.111219e+00 -3.907999e+00   1.112231e-01 -5.509387e-01 -8.525597e-01 2.000000e-01  6.250000e-02  
-2.000000e+00  -5.000000e-01  -1.750000e+00  0  3132 0  1.884407e+00 -1.193035e+00 3.980012e+00   7.529485e-01 -4.157727e-01 -2.315682e-01 2.000000e-01  6.250000e-02  
-1.500000e+00  -5.000000e-01  -2.000000e+00  0  3046 0  1.555219e+00 5.978372e+00 -1.586270e-05   -5.288876e-06 1.194341e-06 -1.171781e+00 2.000000e-01  6.250000e-02  
-1.500000e+00  -5.000000e-01  -1.750000e+00  0  3134 0  -6.347502e+00 -1.770267e+00 5.997442e+00   2.765489e-01 1.630133e-01 -6.788745e-01 2.000000e-01  6.250000e-02  
-1.250000e+00  -5.000000e-01  -2.000000e+00  0  3803 0  5.385886e+00 -6.938150e+00 -3.648940e-06   -1.378481e-06 -5.566986e-07 -1.225488e+00 2.000000e-01  6.250000e-02  
-1.250000e+00  -5.000000e-01  -1.750000e+00  0  3867 0  4.247420e-01 3.220622e-01 -4.890571e+00   -7.562904e-01 3.341821e-01 -2.453592e-01 2.000000e-01  6.250000e-02  
-1.000000e+00  -5.000000e-01  -2.000000e+00  0  3804 0  -3.267853e+00 4.500578e+00 3.804827e-07   1.595407e-08 4.614478e-07 1.382096e+00 2.000000e-01  6.250000e-02  
-1.000000e+00  -5.000000e-01  -1.750000e+00  0  3868 0  5.292656e+00 1.071177e+00 9.180920e-02   -1.994222e+00 -7.288473e-01 9.610973e-01 2.000000e-01  6.250000e-02  
-7.500000e-01  -5.000000e-01  -2.000000e+00  0  3805 0  -2.568191e-01 4.174723e+00 3.280230e-07   6.026509e-07 -1.384203e-08 6.419697e-01 2.000000e-01  6.250000e-02  
-7.500000e-01  -5.000000e-01  -1.750000e+00  0  3869 0  -4.285511e+00 2.700423e-01 -9.620170e-01   -1.513934e+00 6.428926e-01 6.486666e-01 2.000000e-01  6.250000e-02  
-5.000000e-01  -5.000000e-01  -2.000000e+00  0  3806 0  -8.937801e+00 -8.937802e+00 -5.220570e-07   2.686667e-07 -2.656757e-07 -3.791980e-07 2.000000e-01  6.250000e-02  
-5.000000e-01  -5.000000e-01  -1.750000e+00  0  3870 0  -2.035288e+00 -2.035290e+00 7.712807e+00   -1.450290e+00 1.450291e+00 -2.702901e-07 2.000000e-01  6.250000e-02  
-2.500000e-01  -5.000000e-01  -2.000000e+00  0  3807 0  1.417979e+00 1.164163e+00 2.771359e-07   2.887129e-08 -2.379330e-07 4.681021e-01 2.000000e-01  6.250000e-02  
-2.500000e-01  -5.000000e-01  -1.750000e+00  0  3871 0  5.849539e+00 2.136993e+00 1.443863e+00   -7.227404e-01 -7.077460e-01 -3.845171e-01 2.000000e-01  6.250000e-02  
0.000000e+00  -5.000000e-01  -2.000000e+00  0  3808 0  -1.478454e+00 -7.064997e+00 -4.785874e-07   -8.342701e-08 -3.295387e-08 3.817248e-02 2.000000e-01  6.250000e-02  
0.000000e+00  -5.000000e-01  -1.750000e+00  0  3872 0  -8.253823e-02 -1.764445e+00 1.206093e+00   5.067363e-02 -3.438366e-02 9.442620e-02 2.000000e-01  6.250000e-02  
-1.750000e+00  -2.500000e-01  -2.000000e+00  0  3056 0  2.109411e+00 -4.561631e+00 -1.625078e-06   -2.867588e-06 5.690793e-07 1.934289e-02 2.000000e-01  6.250000e-02  
-2.000000e+00  -2.500000e-01  -2.000000e+00  0  3055 0  1.235677e+00 8.145042e+00 -3.082669e-06   -1.842001e-06 7.022244e-07 2.308874e-01 2.000000e-01  6.250000e-02  
-1.750000e+00  -2.500000e-01  -1.750000e+00  0  3144 0  -4.761486e+00 2.092936e+00 -6.462673e+00   6.654257e-01 -3.148408e-01 -9.853901e-01 2.000000e-01  6.250000e-02  
-2.000000e+00  -2.500000e-01  -1.750000e+00  0  3143 0  1.277742e+00 -3.573953e+00 8.129259e-01   -1.624574e-01 -2.653879e-01 -2.116437e-03 2.000000e-01  6.250000e-02  
-1.500000e+00  -2.500000e-01  -2.000000e+00  0  3057 0  -1.614757e+00 8.378326e+00 -1.577582e-06   -1.363131e-06 -1.350398e-07 -1.382567e-02 2.000000e-01  6.250000e-02  
-1.500000e+00  -2.500000e-01  -1.750000e+00  0  3145 0  -4.880845e+00 3.808410e+00 5.285879e+00   8.424625e-01 -2.259760e-01 -1.005174e-01 2.000000e-01  6.250000e-02  
-1.250000e+00  -2.500000e-01  -2.000000e+00  0  3811 0  1.665089e+00 9.436319e-01 5.225015e-08   -3.388987e-07 -2.186166e-07 -1.094860e+00 2.000000e-01  6.250000e-02  
-1.250000e+00  -2.500000e-01  -1.750000e+00  0  3875 0  -1.534786e+00 -4.471047e-01 -4.477622e+00   -4.456477e-01 8.575924e-01 -2.946785e-01 2.000000e-01  6.250000e-02  
-1.000000e+00  -2.500000e-01  -2.000000e+00  0  3812 0  -3.024433e+00 1.197297e+01 -5.104479e-07   -5.574561e-08 2.370389e-07 -1.135030e+00 2.000000e-01  6.250000e-02  
-1.000000e+00  -2.500000e-01  -1.750000e+00  0  3876 0  4.734246e+00 7.521915e+00 -3.865408e-01   -8.211485e-01 -1.612709e+00 -5.204602e-01 2.000000e-01  6.250000e-02  
-7.500000e-01  -2.500000e-01  -2.000000e+00  0  3813 0  3.336227e+00 -1.019885e+01 -2.339823e-07   4.762139e-07 -1.631710e-08 -1.102618e-01 2.000000e-01  6.250000e-02  
-7.500000e-01  -2.500000e-01  -1.750000e+00  0  3877 0  3.177844e+00 2.563551e+00 -9.477152e-01   1.426558e-01 -1.026080e+00 7.982111e-01 2.000000e-01  6.250000e-02  
-5.000000e-01  -2.500000e-01  -2.000000e+00  0  3814 0  1.164163e+00 1.417982e+00 2.746506e-07   2.389176e-07 -2.863425e-08 -4.681028e-01 2.000000e-01  6.250000e-02  
-5.000000e-01  -2.500000e-01  -1.750000e+00  0  3878 0  2.136992e+00 5.849540e+00 1.443862e+00   7.077460e-01 7.227403e-01 3.845165e-01 2.000000e-01  6.250000e-02  
-2.500000e-01  -2.500000e-01  -2.000000e+00  0  3815 0  -1.466035e+00 -1.466035e+00 -6.224490e-07   -9.320785e-09 1.035311e-08 1.026657e-07 2.000000e-01  6.250000e-02  
-2.500000e-01  -2.500000e-01  -1.750000e+00  0  3879 0  3.746211e+00 3.746211e+00 4.931028e+00   2.340538e-01 -2.340538e-01 5.887876e-08 2.000000e-01  6.250000e-02  
0.000000e+00  -2.500000e-01  -2.000000e+00  0  3816 0  -4.366153e-01 -2.582127e+00 1.695776e-07   2.850001e-08 4.793164e-08 1.446817e-01 2.000000e-01  6.250000e-02  
0.000000e+00  -2.500000e-01  -1.750000e+00  0  3880 0  3.425571e-01 -1.214079e-01 -5.210522e+00   -5.563571e-03 -1.804746e-01 7.964904e-02 2.000000e-01  6.250000e-02  
-1.750000e+00  0.000000e+00  -2.000000e+00  0  3067 0  -4.245185e+00 9.080420e-01 -9.154444e-06   8.502928e-07 -8.243581e-07 6.280754e-01 2.000000e-01  6.250000e-02  
-2.000000e+00  0.000000e+00  -2.000000e+00  0  3066 0  7.963377e-05 -1.077184e-04 3.760850e-07   4.575944e-10 6.496745e-09 6.646268e-01 2.000000e-01  6.250000e-02  
-1.750000e+00  0.000000e+00  -1.750000e+00  0  3155 0  4.366467e+00 -1.860133e+00 4.950485e+00   2.369130e-01 6.214996e-02 3.507114e-01 2.000000e-01  6.250000e-02  
-2.000000e+00  0.000000e+00  -1.750000e+00  0  3154 0  -1.676224e-05 1.373088e-05 -4.960417e+00   1.034411e-05 -1.459018e-05 4.725800e-01 2.000000e-01  6.250000e-02  
-1.500000e+00  0.000000e+00  -2.000000e+00  0  3068 0  8.140676e-02 8.686805e-01 1.723934e-06   1.159857e-06 -6.175417e-07 3.965128e-01 2.000000e-01  6.250000e-02  
-1.500000e+00  0.000000e+00  -1.750000e+00  0  3156 0  -1.983498e-01 -1.935121e+00 3.562979e+00   1.149588e-01 7.643621e-01 3.428901e-01 2.000000e-01  6.250000e-02  
-1.250000e+00  0.000000e+00  -2.000000e+00  0  3819 0  -1.091289e+01 6.840473e-03 -1.371982e-06   2.987558e-07 3.174535e-07 -2.835097e-01 2.000000e-01  6.250000e-02  
-1.250000e+00  0.000000e+00  -1.750000e+00  0  3883 0  -7.586615e+00 1.130360e+00 1.878455e+00   -7.176888e-02 4.775006e-01 -7.878489e-02 2.000000e-01  6.250000e-02  
-1.000000e+00  0.000000e+00  -2.000000e+00  0  3820 0  1.296722e+01 3.119084e+00 -1.767499e-08   -1.328808e-07 1.659074e-07 -1.664808e-01 2.000000e-01  6.250000e-02  
-1.000000e+00  0.000000e+00  -1.750000e+00  0  3884 0  -4.879200e+00 -7.868773e-02 -4.195274e+00   -9.958807e-02 -2.525070e+00 -9.018345e-02 2.000000e-01  6.250000e-02  
-7.500000e-01  0.000000e+00  -2.000000e+00  0  3821 0  -1.256005e+00 8.608692e-01 5.704906e-07   7.788432e-08 3.368267e-10 3.242860e-01 2.000000e-01  6.250000e-02  
-7.500000e-01  0.000000e+00  -1.750000e+00  0  3885 0  -4.430152e-02 8.161040e-01 -4.709354e+00   -1.097370e-01 -2.544722e+00 2.022931e-01 2.000000e-01  6.250000e-02  
-5.000000e-01  0.000000e+00  -2.000000e+00  0  3822 0  -7.065000e+00 -1.478455e+00 -4.647047e-07   3.246200e-08 8.213072e-08 -3.817292e-02 2.000000e-01  6.250000e-02  
-5.000000e-01  0.000000e+00  -1.750000e+00  0  3886 0  -1.764446e+00 -8.253750e-02 1.206093e+00   3.438326e-02 -5.067386e-02 -9.442652e-02 2.000000e-01  6.250000e-02  
-2.500000e-01  0.000000e+00  -2.000000e+00  0  3823 0  -2.582127e+00 -4.366148e-01 1.653418e-07   -4.736182e-08 -2.759454e-08 -1.446815e-01 2.000000e-01  6.250000e-02  
-2.500000e-01  0.000000e+00  -1.750000e+00  0  3887 0  -1.214078e-01 3.425569e-01 -5.210522e+00   1.804743e-01 5.563449e-03 -7.964887e-02 2.000000e-01  6.250000e-02  
0.000000e+00  0.000000e+00  -2.000000e+00  0  3824 0  1.609286e-06 1.140577e-06 -1.111765e-06   2.711352e-09 -5.469964e-10 4.046378e-08 2.000000e-01  6.250000e-02  
0.000000e+00  0.000000e+00  -1.750000e+00  0  3888 0  -2.396319e-07 -1.307925e-07 -1.078351e+00   3.017817e-07 -4.509340e-07 3.059291e-08 2.000000e-01  6.250000e-02  
-2.000000e+00  -2.000000e+00  -1.500000e+00  0  1306 0  -4.329541e-06 -9.158311e-06 8.165260e+00   -1.230353e-05 2.450499e-05 8.054647e-08 2.000000e-01  6.250000e-02  
-1.750000e+00  -2.000000e+00  -1.500000e+00  0  1307 0  2.790881e+00 8.285783e-01 3.711361e+00   5.008036e-02 -1.573865e+00 -6.336528e-01 2.000000e-01  6.250000e-02  
-1.750000e+00  -1.750000e+00  -1.500000e+00  0  1318 0  -1.392229e+00 -1.392226e+00 1.180355e+00   1.293516e+00 -1.293511e+00 -2.523235e-06 2.000000e-01  6.250000e-02  
-2.000000e+00  -1.750000e+00  -1.500000e+00  0  1317 0  8.285938e-01 2.790858e+00 3.711358e+00   1.573867e+00 -5.007110e-02 6.336488e-01 2.000000e-01  6.250000e-02  
-1.500000e+00  -2.000000e+00  -1.500000e+00  0  1308 0  -6.620528e+00 3.392641e+00 -8.028116e+00   -1.244618e-01 2.132893e-01 -3.705926e-01 2.000000e-01  6.250000e-02  
-1.500000e+00  -1.750000e+00  -1.500000e+00  0  1319 0  -4.984380e+00 -5.267092e-01 -2.853301e+00   1.175169e-01 7.761155e-01 -4.281781e-01 2.000000e-01  6.250000e-02  
-1.250000e+00  -2.000000e+00  -1.500000e+00  0  2275 0  -2.125224e+00 -3.642102e-01 2.900291e-01   -4.500602e-01 3.455743e-01 1.409003e-01 2.000000e-01  6.250000e-02  
-1.250000e+00  -1.750000e+00  -1.500000e+00  0  2283 0  3.545871e+00 -2.943172e-01 -1.928941e+00   -6.637597e-01 8.506997e-01 -1.069789e+00 2.000000e-01  6.250000e-02  
-1.000000e+00  -2.000000e+00  -1.500000e+00  0  2276 0  9.044174e+00 -3.272437e-02 3.523575e+00   -1.869224e-01 -1.262898e+00 -7.475487e-03 2.000000e-01  6.250000e-02  
-1.000000e+00  -1.750000e+00  -1.500000e+00  0  2284 0  -1.688797e+00 1.636306e+00 -1.087120e+00   1.415578e-01 -2.394396e+00 -1.260113e+00 2.000000e-01  6.250000e-02  
-7.500000e-01  -2.000000e+00  -1.500000e+00  0  2277 0  3.885351e+00 4.960898e-01 4.043136e+00   -1.241912e-01 -2.967205e+00 -1.654966e-01 2.000000e-01  6.250000e-02  
-7.500000e-01  -1.750000e+00  -1.500000e+00  0  2285 0  7.627289e+00 3.071725e+00 9.458595e-01   8.732147e-01 -3.367967e+00 -3.013894e-01 2.000000e-01  6.250000e-02  
-5.000000e-01  -2.000000e+00  -1.500000e+00  0  2278 0  3.432355e+00 4.987315e-01 2.739269e+00   -3.150559e-01 -1.632337e+00 -3.036307e-01 2.000000e-01  6.250000e-02  
-5.000000e-01  -1.750000e+00  -1.500000e+00  0  2286 0  -5.747289e+00 5.225170e+00 -5.276865e+00   -1.450243e-01 -7.021379e-01 7.530249e-01 2.000000e-01  6.250000e-02  
-2.500000e-01  -2.000000e+00  -1.500000e+00  0  2279 0  8.486290e+00 -6.761283e-01 -1.307203e+00   -8.534232e-02 4.845353e-01 -5.494373e-02 2.000000e-01  6.250000e-02  