VARIABLES="X", "Y", "Z", "Maximum Refinment Level", "Temp_ID", "Thread","Ex (corner node)","Ey (corner node)","Ez (corner node)","Bx (center node)","By (center node)","Bz (center node)", "Local Time Step" , "log10(Local Particle Weight)" 
ZONE N=4913, E=4096, DATAPACKING=POINT, ZONETYPE=FEBRICK
-2.000000e+00  -2.000000e+00  -2.000000e+00  0  1064 0  -2.779630e-05 1.776408e-06 -1.840085e-05   4.540786e-10 5.048963e-10 -4.087221e-10 2.000000e-01  6.250000e-02  
-1.750000e+00  -2.000000e+00  -2.000000e+00  0  1065 0  1.018184e+01 -5.909796e-07 4.000170e-06   -4.726366e-09 -1.919818e-06 -2.227626e-07 2.000000e-01  6.250000e-02  
-1.750000e+00  -1.750000e+00  -2.000000e+00  0  1076 0  -3.341311e-01 -3.341052e-01 -2.369700e-05   9.889439e-07 -9.718129e-07 -1.147936e-06 2.000000e-01  6.250000e-02  
-2.000000e+00  -1.750000e+00  -2.000000e+00  0  1075 0  5.200201e-06 1.018187e+01 3.831329e-06   1.909873e-06 -9.422737e-09 -2.788576e-06 2.000000e-01  6.250000e-02  
-2.000000e+00  -2.000000e+00  -1.750000e+00  0  1185 0  5.291511e-06 -6.289727e-07 1.018185e+01   2.217076e-07 2.798046e-06 1.233861e-08 2.000000e-01  6.250000e-02  
-1.750000e+00  -2.000000e+00  -1.750000e+00  0  1186 0  -3.341391e-01 3.184854e-06 -3.341319e-01   1.132886e-07 4.586662e-07 -1.106934e-07 2.000000e-01  6.250000e-02  
-1.750000e+00  -1.750000e+00  -1.750000e+00  0  1197 0  1.643174e+00 1.643195e+00 1.643174e+00   6.104709e-07 3.072431e-07 -9.190169e-07 2.000000e-01  6.250000e-02  
-2.000000e+00  -1.750000e+00  -1.750000e+00  0  1196 0  -3.352816e-05 -3.341127e-01 -3.341313e-01   6.835227e-07 1.433238e-06 -1.456578e-06 2.000000e-01  6.250000e-02  
-1.500000e+00  -2.000000e+00  -2.000000e+00  0  1066 0  -8.860862e+00 1.445293e-06 -1.296291e-05   -6.195833e-09 -1.580286e-06 -2.224545e-07 2.000000e-01  6.250000e-02  
-1.500000e+00  -1.750000e+00  -2.000000e+00  0  1077 0  1.519628e+01 -5.917856e+00 -2.214646e-06   -3.156639e-07 2.459905e-07 -1.647542e+00 2.000000e-01  6.250000e-02  
-1.500000e+00  -2.000000e+00  -1.750000e+00  0  1187 0  1.519629e+01 2.161061e-07 -5.917861e+00   -4.147959e-08 1.647543e+00 1.288587e-08 2.000000e-01  6.250000e-02  
-1.500000e+00  -1.750000e+00  -1.750000e+00  0  1198 0  9.612054e-01 -1.626666e+01 -1.626666e+01   1.530478e-07 2.103217e+00 -2.103218e+00 2.000000e-01  6.250000e-02  
-1.250000e+00  -2.000000e+00  -2.000000e+00  0  2099 0  -2.694822e+01 5.069408e-07 -4.307058e-06   -1.840972e-09 -1.432569e-06 -1.831698e-07 2.000000e-01  6.250000e-02  
-1.250000e+00  -1.750000e+00  -2.000000e+00  0  2107 0  5.823756e+00 4.798429e-01 1.271325e-06   -4.506124e-07 -9.311018e-07 -1.121454e-01 2.000000e-01  6.250000e-02  
-1.250000e+00  -2.000000e+00  -1.750000e+00  0  2187 0  5.823758e+00 -1.253104e-07 4.798400e-01   -5.166294e-08 1.121456e-01 -1.240072e-07 2.000000e-01  6.250000e-02  
-1.250000e+00  -1.750000e+00  -1.750000e+00  0  2195 0  3.261581e+00 -1.479632e+01 -1.479632e+01   -2.399988e-07 -7.847249e-01 7.847243e-01 2.000000e-01  6.250000e-02  
-1.000000e+00  -2.000000e+00  -2.000000e+00  0  2100 0  3.900643e+00 5.213754e-07 -4.619496e-06   -6.542736e-10 -1.502821e-07 -1.740494e-08 2.000000e-01  6.250000e-02  
-1.000000e+00  -1.750000e+00  -2.000000e+00  0  2108 0  1.692472e+01 -1.503058e+01 -1.105918e-06   -2.799582e-07 -2.409625e-07 2.099067e+00 2.000000e-01  6.250000e-02  
-1.000000e+00  -2.000000e+00  -1.750000e+00  0  2188 0  1.692471e+01 1.420007e-07 -1.503058e+01   -3.161947e-08 -2.099067e+00 -2.666542e-08 2.000000e-01  6.250000e-02  
-1.000000e+00  -1.750000e+00  -1.750000e+00  0  2196 0  8.244593e+00 -4.281530e+00 -4.281531e+00   -1.728178e-07 -1.749940e+00 1.749940e+00 2.000000e-01  6.250000e-02  
-7.500000e-01  -2.000000e+00  -2.000000e+00  0  2101 0  -1.931975e+01 -5.119042e-08 4.757996e-07   -5.530644e-10 -9.619595e-08 -1.233364e-08 2.000000e-01  6.250000e-02  
-7.500000e-01  -1.750000e+00  -2.000000e+00  0  2109 0  -3.975955e+00 -1.816197e+01 -6.941362e-07   -2.116192e-07 -6.912656e-08 1.615961e+00 2.000000e-01  6.250000e-02  
-7.500000e-01  -2.000000e+00  -1.750000e+00  0  2189 0  -3.975954e+00 5.853302e-08 -1.816197e+01   -2.370972e-08 -1.615961e+00 -1.032809e-08 2.000000e-01  6.250000e-02  
-7.500000e-01  -1.750000e+00  -1.750000e+00  0  2197 0  -1.818797e+01 -4.426285e+00 -4.426285e+00   -5.820139e-08 -1.001605e+00 1.001605e+00 2.000000e-01  6.250000e-02  
-5.000000e-01  -2.000000e+00  -2.000000e+00  0  2102 0  -1.470716e+01 -1.807554e-07 1.365268e-06   -3.609289e-10 -4.350237e-08 -3.952287e-09 2.000000e-01  6.250000e-02  
-5.000000e-01  -1.750000e+00  -2.000000e+00  0  2110 0  -4.206523e+00 -3.391850e+00 -1.796673e-06   -4.882755e-08 1.313903e-08 8.041640e-01 2.000000e-01  6.250000e-02  
-5.000000e-01  -2.000000e+00  -1.750000e+00  0  2190 0  -4.206523e+00 2.131977e-07 -3.391850e+00   -4.681189e-09 -8.041640e-01 5.066355e-10 2.000000e-01  6.250000e-02  
-5.000000e-01  -1.750000e+00  -1.750000e+00  0  2198 0  -2.350758e+00 -1.516257e+01 -1.516257e+01   2.207837e-10 -7.102938e-01 7.102937e-01 2.000000e-01  6.250000e-02  
-2.500000e-01  -2.000000e+00  -2.000000e+00  0  2103 0  3.891993e+00 6.677907e-08 -5.959862e-07   1.109319e-10 -6.682894e-08 -9.693549e-09 2.000000e-01  6.250000e-02  
-2.500000e-01  -1.750000e+00  -2.000000e+00  0  2111 0  -1.284919e-01 -1.724758e+01 4.222689e-07   -9.303696e-09 -2.979661e-08 3.121925e-01 2.000000e-01  6.250000e-02  
-2.500000e-01  -2.000000e+00  -1.750000e+00  0  2191 0  -1.284912e-01 -5.095153e-08 -1.724758e+01   -4.936245e-10 -3.121926e-01 -4.691737e-09 2.000000e-01  6.250000e-02  
-2.500000e-01  -1.750000e+00  -1.750000e+00  0  2199 0  2.098704e+01 -2.329145e-01 -2.329153e-01   -6.132477e-09 -3.877685e-01 3.877684e-01 2.000000e-01  6.250000e-02  
0.000000e+00  -2.000000e+00  -2.000000e+00  0  2104 0  1.572609e-07 1.228659e-07 -1.028413e-06   -2.466796e-11 -3.008505e-10 -1.791487e-10 2.000000e-01  6.250000e-02  
0.000000e+00  -1.750000e+00  -2.000000e+00  0  2112 0  3.046674e-06 -2.319742e+00 2.291775e-07   2.494069e-09 -2.758249e-10 -1.475399e-06 2.000000e-01  6.250000e-02  
0.000000e+00  -2.000000e+00  -1.750000e+00  0  2192 0  3.049578e-06 -2.212802e-08 -2.319743e+00   9.906131e-12 1.475234e-06 2.184002e-10 2.000000e-01  6.250000e-02  
0.000000e+00  -1.750000e+00  -1.750000e+00  0  2200 0  -6.978192e-06 -1.764734e+01 -1.764734e+01   -4.269487e-08 1.079973e-06 -1.079993e-06 2.000000e-01  6.250000e-02  
-1.750000e+00  -1.500000e+00  -2.000000e+00  0  1087 0  -5.917864e+00 1.519631e+01 -2.262699e-06   -2.499422e-07 3.200352e-07 1.647543e+00 2.000000e-01  6.250000e-02  
-2.000000e+00  -1.500000e+00  -2.000000e+00  0  1086 0  -1.874672e-05 -8.860860e+00 -1.297494e-05   1.574835e-06 -1.192141e-08 -2.189528e-06 2.000000e-01  6.250000e-02  
-1.750000e+00  -1.500000e+00  -1.750000e+00  0  1208 0  -1.626667e+01 9.611878e-01 -1.626667e+01   -2.103219e+00 -9.787094e-08 2.103219e+00 2.000000e-01  6.250000e-02  
-2.000000e+00  -1.500000e+00  -1.750000e+00  0  1207 0  -3.104306e-06 1.519630e+01 -5.917857e+00   -1.647543e+00 -4.291092e-07 3.604999e-07 2.000000e-01  6.250000e-02  
-1.500000e+00  -1.500000e+00  -2.000000e+00  0  1088 0  2.292439e+00 2.292439e+00 -4.233083e-07   -1.003837e-06 1.007066e-06 -6.606246e-09 2.000000e-01  6.250000e-02  
-1.500000e+00  -1.500000e+00  -1.750000e+00  0  1209 0  5.873093e+00 5.873098e+00 -1.848965e+01   -2.169619e+00 2.169619e+00 -7.168277e-07 2.000000e-01  6.250000e-02  
-1.250000e+00  -1.500000e+00  -2.000000e+00  0  2115 0  -6.933285e+00 5.954008e+00 -2.210395e-06   1.317872e-07 -3.385481e-07 -8.810849e-01 2.000000e-01  6.250000e-02  
-1.250000e+00  -1.500000e+00  -1.750000e+00  0  2203 0  -2.896818e+00 1.006053e+01 -1.320086e+01   -1.745500e+00 -1.292826e+00 -1.304701e+00 2.000000e-01  6.250000e-02  
-1.000000e+00  -1.500000e+00  -2.000000e+00  0  2116 0  4.350978e+00 1.328762e+01 -2.136674e-09   7.449281e-08 -3.242722e-07 9.878885e-01 2.000000e-01  6.250000e-02  
-1.000000e+00  -1.500000e+00  -1.750000e+00  0  2204 0  2.281423e-01 9.479586e+00 -4.056760e+00   -7.960006e-01 -1.283464e+00 -4.411407e-02 2.000000e-01  6.250000e-02  
-7.500000e-01  -1.500000e+00  -2.000000e+00  0  2117 0  -6.452035e+00 2.655318e+00 3.357917e-07   -6.067959e-10 4.348479e-09 -1.766329e-01 2.000000e-01  6.250000e-02  
-7.500000e-01  -1.500000e+00  -1.750000e+00  0  2205 0  -1.451409e+01 2.148396e+01 -1.068424e+01   -1.745700e-01 -7.228574e-01 4.521981e-01 2.000000e-01  6.250000e-02  
-5.000000e-01  -1.500000e+00  -2.000000e+00  0  2118 0  -4.334520e+00 9.872003e+00 6.698045e-07   2.625414e-08 3.462747e-08 -9.444695e-01 2.000000e-01  6.250000e-02  
-5.000000e-01  -1.500000e+00  -1.750000e+00  0  2206 0  4.201676e+00 2.171561e+01 -1.287935e+01   -6.069300e-01 -7.124292e-01 -7.093269e-01 2.000000e-01  6.250000e-02  
-2.500000e-01  -1.500000e+00  -2.000000e+00  0  2119 0  1.030708e+00 7.617637e+00 -1.147842e-07   -1.872311e-08 1.254451e-08 -7.788982e-01 2.000000e-01  6.250000e-02  
-2.500000e-01  -1.500000e+00  -1.750000e+00  0  2207 0  -2.922482e+00 1.615728e+01 -4.686085e+00   -6.473490e-01 -4.559071e-01 -8.850535e-01 2.000000e-01  6.250000e-02  
0.000000e+00  -1.500000e+00  -2.000000e+00  0  2120 0  -5.420048e-08 7.656198e+00 -2.385617e-07   -3.877912e-08 -1.346890e-10 -4.789313e-07 2.000000e-01  6.250000e-02  
0.000000e+00  -1.500000e+00  -1.750000e+00  0  2208 0  1.077316e-06 2.251002e+01 -1.321126e+01   -5.486308e-01 3.215021e-07 -3.478096e-07 2.000000e-01  6.250000e-02  
-1.750000e+00  -1.250000e+00  -2.000000e+00  0  3012 0  4.798378e-01 5.823764e+00 1.249274e-06   9.373727e-07 4.509377e-07 1.121471e-01 2.000000e-01  6.250000e-02  
-2.000000e+00  -1.250000e+00  -2.000000e+00  0  3011 0  -6.005056e-06 -2.694822e+01 -4.317963e-06   1.444040e-06 -3.394152e-09 -2.023017e-06 2.000000e-01  6.250000e-02  
-1.750000e+00  -1.250000e+00  -1.750000e+00  0  3100 0  -1.479632e+01 3.261582e+00 -1.479632e+01   7.847229e-01 -1.763892e-07 -7.847230e-01 2.000000e-01  6.250000e-02  
-2.000000e+00  -1.250000e+00  -1.750000e+00  0  3099 0  1.864826e-06 5.823763e+00 4.798394e-01   -1.121468e-01 -6.164599e-07 -1.315659e-06 2.000000e-01  6.250000e-02  
-1.500000e+00  -1.250000e+00  -2.000000e+00  0  3013 0  5.954006e+00 -6.933286e+00 -2.196760e-06   3.386833e-07 -1.278184e-07 8.810855e-01 2.000000e-01  6.250000e-02  
-1.500000e+00  -1.250000e+00  -1.750000e+00  0  3101 0  1.006052e+01 -2.896823e+00 -1.320086e+01   1.292825e+00 1.745500e+00 1.304701e+00 2.000000e-01  6.250000e-02  
-1.250000e+00  -1.250000e+00  -2.000000e+00  0  3779 0  -2.077857e+00 -2.077859e+00 2.998176e-07   3.071540e-07 -3.055044e-07 -2.060134e-07 2.000000e-01  6.250000e-02  
-1.250000e+00  -1.250000e+00  -1.750000e+00  0  3843 0  -4.502654e+00 -4.502654e+00 -1.139270e+01   4.393737e-01 -4.393736e-01 -2.050651e-07 2.000000e-01  6.250000e-02  
-1.000000e+00  -1.250000e+00  -2.000000e+00  0  3780 0  7.005712e+00 -9.606344e-01 -2.261322e-07   1.614337e-07 -2.172943e-07 -1.799077e+00 2.000000e-01  6.250000e-02  
-1.000000e+00  -1.250000e+00  -1.750000e+00  0  3844 0  4.690440e+00 -5.145817e+00 -1.500599e+01   3.967723e-01 -8.007033e-01 -2.586570e+00 2.000000e-01  6.250000e-02  
-7.500000e-01  -1.250000e+00  -2.000000e+00  0  3781 0  -1.424086e+01 -4.669340e+00 -1.269401e-07   -1.305386e-08 3.584859e-08 -3.799828e-01 2.000000e-01  6.250000e-02  
-7.500000e-01  -1.250000e+00  -1.750000e+00  0  3845 0  -5.304712e+00 -6.351334e+00 -1.818639e+01   7.854593e-01 -9.634996e-01 -4.415546e-01 2.000000e-01  6.250000e-02  
-5.000000e-01  -1.250000e+00  -2.000000e+00  0  3782 0  -7.984501e+00 2.548492e+00 -4.792419e-08   8.428975e-09 -5.765982e-09 1.385645e-01 2.000000e-01  6.250000e-02  
-5.000000e-01  -1.250000e+00  -1.750000e+00  0  3846 0  1.512655e+00 -7.153268e+00 -1.525589e+01   8.534363e-01 -6.408683e-01 -1.303731e-01 2.000000e-01  6.250000e-02  
-2.500000e-01  -1.250000e+00  -2.000000e+00  0  3783 0  2.507287e+00 -1.568412e+00 -2.140451e-08   4.467417e-09 7.497648e-09 -1.612550e-01 2.000000e-01  6.250000e-02  
-2.500000e-01  -1.250000e+00  -1.750000e+00  0  3847 0  1.150865e+00 -5.978064e+00 -1.575092e+01   9.694950e-01 -3.776734e-01 -2.467390e-01 2.000000e-01  6.250000e-02  
0.000000e+00  -1.250000e+00  -2.000000e+00  0  3784 0  2.095415e-07 3.160910e+00 3.264204e-08   1.102334e-08 1.336424e-10 -5.280604e-08 2.000000e-01  6.250000e-02  
0.000000e+00  -1.250000e+00  -1.750000e+00  0  3848 0  -2.031324e-07 -8.835872e+00 -1.615309e+01   9.841827e-01 -1.275085e-08 -3.722361e-08 2.000000e-01  6.250000e-02  
-1.750000e+00  -1.000000e+00  -2.000000e+00  0  3023 0  -1.503058e+01 1.692471e+01 -1.126029e-06   2.371286e-07 2.844838e-07 -2.099066e+00 2.000000e-01  6.250000e-02  
-2.000000e+00  -1.000000e+00  -2.000000e+00  0  3022 0  -6.381767e-06 3.900634e+00 -4.642713e-06   1.473926e-07 -1.515564e-09 -2.184474e-07 2.000000e-01  6.250000e-02  
-1.750000e+00  -1.000000e+00  -1.750000e+00  0  3111 0  -4.281531e+00 8.244601e+00 -4.281532e+00   1.749939e+00 -3.108986e-08 -1.749939e+00 2.000000e-01  6.250000e-02  
-2.000000e+00  -1.000000e+00  -1.750000e+00  0  3110 0  -1.614225e-06 1.692471e+01 -1.503058e+01   2.099066e+00 -3.821617e-07 -3.412233e-07 2.000000e-01  6.250000e-02  
-1.500000e+00  -1.000000e+00  -2.000000e+00  0  3024 0  1.328762e+01 4.350979e+00 6.021589e-10   3.231845e-07 -7.146047e-08 -9.878878e-01 2.000000e-01  6.250000e-02  
-1.500000e+00  -1.000000e+00  -1.750000e+00  0  3112 0  9.479588e+00 2.281401e-01 -4.056757e+00   1.283464e+00 7.960003e-01 4.411473e-02 2.000000e-01  6.250000e-02  
-1.250000e+00  -1.000000e+00  -2.000000e+00  0  3787 0  -9.606352e-01 7.005713e+00 -2.315609e-07   2.176633e-07 -1.602574e-07 1.799077e+00 2.000000e-01  6.250000e-02  
-1.250000e+00  -1.000000e+00  -1.750000e+00  0  3851 0  -5.145817e+00 4.690441e+00 -1.500599e+01   8.007033e-01 -3.967723e-01 2.586570e+00 2.000000e-01  6.250000e-02  
-1.000000e+00  -1.000000e+00  -2.000000e+00  0  3788 0  -8.546414e+00 -8.546414e+00 -2.463936e-08   3.474711e-08 -3.427363e-08 -5.016694e-08 2.000000e-01  6.250000e-02  
-1.000000e+00  -1.000000e+00  -1.750000e+00  0  3852 0  8.213288e+00 8.213288e+00 -1.341381e+01   -7.613998e-02 7.614001e-02 -2.853110e-08 2.000000e-01  6.250000e-02  
-7.500000e-01  -1.000000e+00  -2.000000e+00  0  3789 0  9.947607e-01 5.717153e+00 -7.747662e-09   -2.079779e-08 -2.172621e-09 1.356886e+00 2.000000e-01  6.250000e-02  
-7.500000e-01  -1.000000e+00  -1.750000e+00  0  3853 0  -3.690884e+00 1.594263e+01 -1.254345e+01   -1.741674e-01 -4.094784e-01 4.844263e-01 2.000000e-01  6.250000e-02  
-5.000000e-01  -1.000000e+00  -2.000000e+00  0  3790 0  -5.537628e-01 5.550180e-01 4.361019e-09   3.248440e-09 -1.066778e-08 9.852891e-01 2.000000e-01  6.250000e-02  
-5.000000e-01  -1.000000e+00  -1.750000e+00  0  3854 0  -5.235299e+00 -5.782188e+00 -1.293825e+01   5.093094e-01 -2.483059e-01 4.902206e-01 2.000000e-01  6.250000e-02  
-2.500000e-01  -1.000000e+00  -2.000000e+00  0  3791 0  -9.101551e-01 -5.012749e-01 7.642119e-09   -4.690249e-10 -9.598902e-10 -3.335176e-01 2.000000e-01  6.250000e-02  
-2.500000e-01  -1.000000e+00  -1.750000e+00  0  3855 0  7.669680e+00 4.212798e+00 -9.745603e+00   8.237319e-01 -2.187331e-01 -4.660113e-01 2.000000e-01  6.250000e-02  
0.000000e+00  -1.000000e+00  -2.000000e+00  0  3792 0  3.884251e-09 -1.323286e+00 -7.163439e-09   -1.311380e-09 -5.943701e-11 2.976058e-09 2.000000e-01  6.250000e-02  
0.000000e+00  -1.000000e+00  -1.750000e+00  0  3856 0  7.402544e-09 5.085486e+00 -1.368717e+01   8.680816e-01 1.030905e-08 1.404122e-09 2.000000e-01  6.250000e-02  
-1.750000e+00  -7.500000e-01  -2.000000e+00  0  3034 0  -1.816198e+01 -3.975954e+00 -6.825697e-07   7.158333e-08 2.115965e-07 -1.615960e+00 2.000000e-01  6.250000e-02  
-2.000000e+00  -7.500000e-01  -2.000000e+00  0  3033 0  6.794079e-07 -1.931975e+01 4.795197e-07   9.850003e-08 -9.687104e-10 -1.494508e-07 2.000000e-01  6.250000e-02  
-1.750000e+00  -7.500000e-01  -1.750000e+00  0  3122 0  -4.426272e+00 -1.818798e+01 -4.426272e+00   1.001605e+00 -4.949929e-08 -1.001605e+00 2.000000e-01  6.250000e-02  
-2.000000e+00  -7.500000e-01  -1.750000e+00  0  3121 0  -9.397169e-07 -3.975954e+00 -1.816197e+01   1.615960e+00 -2.957088e-07 -1.065120e-07 2.000000e-01  6.250000e-02  
-1.500000e+00  -7.500000e-01  -2.000000e+00  0  3035 0  2.655318e+00 -6.452035e+00 3.400434e-07   -3.421437e-09 -1.617972e-10 1.766325e-01 2.000000e-01  6.250000e-02  
-1.500000e+00  -7.500000e-01  -1.750000e+00  0  3123 0  2.148396e+01 -1.451409e+01 -1.068424e+01   7.228575e-01 1.745695e-01 -4.521986e-01 2.000000e-01  6.250000e-02  
-1.250000e+00  -7.500000e-01  -2.000000e+00  0  3795 0  -4.669340e+00 -1.424087e+01 -1.296973e-07   -3.559983e-08 1.229793e-08 3.799828e-01 2.000000e-01  6.250000e-02  
-1.250000e+00  -7.500000e-01  -1.750000e+00  0  3859 0  -6.351334e+00 -5.304712e+00 -1.818639e+01   9.634996e-01 -7.854593e-01 4.415547e-01 2.000000e-01  6.250000e-02  
-1.000000e+00  -7.500000e-01  -2.000000e+00  0  3796 0  5.717152e+00 9.947607e-01 -7.453730e-09   1.998715e-09 2.079180e-08 -1.356886e+00 2.000000e-01  6.250000e-02  
-1.000000e+00  -7.500000e-01  -1.750000e+00  0  3860 0  1.594263e+01 -3.690884e+00 -1.254345e+01   4.094783e-01 1.741674e-01 -4.844263e-01 2.000000e-01  6.250000e-02  
-7.500000e-01  -7.500000e-01  -2.000000e+00  0  3797 0  -5.957448e+00 -5.957448e+00 1.036869e-07   1.800257e-08 -1.852523e-08 9.121677e-10 2.000000e-01  6.250000e-02  
-7.500000e-01  -7.500000e-01  -1.750000e+00  0  3861 0  -7.672627e+00 -7.672627e+00 -7.974152e+00   3.091736e-01 -3.091736e-01 3.498442e-09 2.000000e-01  6.250000e-02  
-5.000000e-01  -7.500000e-01  -2.000000e+00  0  3798 0  -2.780142e+00 -2.671051e+00 -2.857995e-08   6.007545e-09 -8.322655e-09 1.145208e-01 2.000000e-01  6.250000e-02  
-5.000000e-01  -7.500000e-01  -1.750000e+00  0  3862 0  1.201737e+00 -5.044142e+00 -1.732581e+01   6.010986e-01 -2.741934e-01 4.322300e-01 2.000000e-01  6.250000e-02  
-2.500000e-01  -7.500000e-01  -2.000000e+00  0  3799 0  2.977034e-01 9.095965e-01 -2.236292e-09   6.367188e-10 1.046791e-09 -2.453438e-01 2.000000e-01  6.250000e-02  
-2.500000e-01  -7.500000e-01  -1.750000e+00  0  3863 0  3.093457e+00 -4.126338e+00 -1.274833e+01   4.805396e-01 -1.341761e-01 -1.880237e-01 2.000000e-01  6.250000e-02  
0.000000e+00  -7.500000e-01  -2.000000e+00  0  3800 0  -5.425289e-09 -8.175261e-03 -4.042287e-10   1.228949e-09 -1.114051e-10 2.703778e-09 2.000000e-01  6.250000e-02  
0.000000e+00  -7.500000e-01  -1.750000e+00  0  3864 0  -1.003642e-08 -9.754642e+00 -1.765546e+01   4.268064e-01 2.175638e-09 2.034573e-09 2.000000e-01  6.250000e-02  
-1.750000e+00  -5.000000e-01  -2.000000e+00  0  3045 0  -3.391846e+00 -4.206522e+00 -1.815133e-06   -1.307577e-08 5.015293e-08 -8.041652e-01 2.000000e-01  6.250000e-02  
-2.000000e+00  -5.000000e-01  -2.000000e+00  0  3044 0  1.859980e-06 -1.470719e+01 1.340060e-06   4.263646e-08 -5.388599e-10 -5.548267e-08 2.000000e-01  6.250000e-02  
-1.750000e+00  -5.000000e-01  -1.750000e+00  0  3133 0  -1.516257e+01 -2.350777e+00 -1.516257e+01   7.102946e-01 -1.418458e-08 -7.102946e-01 2.000000e-01  6.250000e-02  
-2.000000e+00  -5.000000e-01  -1.750000e+00  0  3132 0  -2.577626e-06 -4.206522e+00 -3.391846e+00   8.041653e-01 -7.402817e-08 2.041506e-08 2.000000e-01  6.250000e-02  
-1.500000e+00  -5.000000e-01  -2.000000e+00  0  3046 0  9.872004e+00 -4.334522e+00 6.660534e-07   -3.410017e-08 -2.661715e-08 9.444684e-01 2.000000e-01  6.250000e-02  
-1.500000e+00  -5.000000e-01  -1.750000e+00  0  3134 0  2.171561e+01 4.201683e+00 -1.287935e+01   7.124295e-01 6.069299e-01 7.093258e-01 2.000000e-01  6.250000e-02  
-1.250000e+00  -5.000000e-01  -2.000000e+00  0  3803 0  2.548492e+00 -7.984500e+00 -4.649221e-08   6.022470e-09 -9.344949e-09 -1.385643e-01 2.000000e-01  6.250000e-02  
-1.250000e+00  -5.000000e-01  -1.750000e+00  0  3867 0  -7.153268e+00 1.512654e+00 -1.525589e+01   6.408683e-01 -8.534363e-01 1.303734e-01 2.000000e-01  6.250000e-02  
-1.000000e+00  -5.000000e-01  -2.000000e+00  0  3804 0  5.550183e-01 -5.537628e-01 2.820149e-09   1.090988e-08 -3.198051e-09 -9.852891e-01 2.000000e-01  6.250000e-02  
-1.000000e+00  -5.000000e-01  -1.750000e+00  0  3868 0  -5.782188e+00 -5.235299e+00 -1.293825e+01   2.483059e-01 -5.093094e-01 -4.902206e-01 2.000000e-01  6.250000e-02  
-7.500000e-01  -5.000000e-01  -2.000000e+00  0  3805 0  -2.671051e+00 -2.780142e+00 -2.798687e-08   8.334716e-09 -6.257215e-09 -1.145207e-01 2.000000e-01  6.250000e-02  
-7.500000e-01  -5.000000e-01  -1.750000e+00  0  3869 0  -5.044142e+00 1.201737e+00 -1.732581e+01   2.741934e-01 -6.010986e-01 -4.322300e-01 2.000000e-01  6.250000e-02  
-5.000000e-01  -5.000000e-01  -2.000000e+00  0  3806 0  -1.626846e+00 -1.626846e+00 1.149221e-08   1.818009e-09 -1.971812e-09 9.954184e-10 2.000000e-01  6.250000e-02  
-5.000000e-01  -5.000000e-01  -1.750000e+00  0  3870 0  2.412929e+00 2.412929e+00 -2.248339e+01   3.651567e-01 -3.651567e-01 1.086747e-09 2.000000e-01  6.250000e-02  
-2.500000e-01  -5.000000e-01  -2.000000e+00  0  3807 0  -1.628256e-01 -2.409680e+00 3.945026e-10   -1.147963e-09 7.441904e-10 -1.715265e-01 2.000000e-01  6.250000e-02  
-2.500000e-01  -5.000000e-01  -1.750000e+00  0  3871 0  2.849541e+00 -5.951789e+00 -1.602045e+01   2.006606e-01 -9.669615e-02 -2.080174e-01 2.000000e-01  6.250000e-02  
0.000000e+00  -5.000000e-01  -2.000000e+00  0  3808 0  2.283871e-09 -3.541409e+00 1.122761e-09   2.096828e-10 4.800246e-11 -3.756416e-10 2.000000e-01  6.250000e-02  
0.000000e+00  -5.000000e-01  -1.750000e+00  0  3872 0  1.431292e-09 4.176404e+00 -2.027416e+01   1.960847e-01 4.555050e-11 -2.475890e-10 2.000000e-01  6.250000e-02  
-1.750000e+00  -2.500000e-01  -2.000000e+00  0  3056 0  -1.724758e+01 -1.284970e-01 4.219019e-07   2.868330e-08 1.020787e-08 -3.121945e-01 2.000000e-01  6.250000e-02  
-2.000000e+00  -2.500000e-01  -2.000000e+00  0  3055 0  -8.446369e-07 3.891961e+00 -5.915429e-07   6.561030e-08 -1.461449e-11 -8.931780e-08 2.000000e-01  6.250000e-02  
-1.750000e+00  -2.500000e-01  -1.750000e+00  0  3144 0  -2.329101e-01 2.098703e+01 -2.329098e-01   3.877696e-01 -5.711219e-09 -3.877696e-01 2.000000e-01  6.250000e-02  
-2.000000e+00  -2.500000e-01  -1.750000e+00  0  3143 0  5.948846e-07 -1.284973e-01 -1.724758e+01   3.121945e-01 -1.682279e-08 -3.826496e-08 2.000000e-01  6.250000e-02  
-1.500000e+00  -2.500000e-01  -2.000000e+00  0  3057 0  7.617637e+00 1.030707e+00 -1.105235e-07   -1.297735e-08 1.878829e-08 7.788971e-01 2.000000e-01  6.250000e-02  
-1.500000e+00  -2.500000e-01  -1.750000e+00  0  3145 0  1.615728e+01 -2.922481e+00 -4.686087e+00   4.559073e-01 6.473488e-01 8.850526e-01 2.000000e-01  6.250000e-02  
-1.250000e+00  -2.500000e-01  -2.000000e+00  0  3811 0  -1.568412e+00 2.507287e+00 -1.982358e-08   -7.736787e-09 -4.664065e-09 1.612550e-01 2.000000e-01  6.250000e-02  
-1.250000e+00  -2.500000e-01  -1.750000e+00  0  3875 0  -5.978064e+00 1.150865e+00 -1.575092e+01   3.776735e-01 -9.694950e-01 2.467391e-01 2.000000e-01  6.250000e-02  
-1.000000e+00  -2.500000e-01  -2.000000e+00  0  3812 0  -5.012749e-01 -9.101552e-01 6.897974e-09   9.447087e-10 5.324773e-10 3.335176e-01 2.000000e-01  6.250000e-02  
-1.000000e+00  -2.500000e-01  -1.750000e+00  0  3876 0  4.212798e+00 7.669680e+00 -9.745603e+00   2.187331e-01 -8.237319e-01 4.660113e-01 2.000000e-01  6.250000e-02  
-7.500000e-01  -2.500000e-01  -2.000000e+00  0  3813 0  9.095965e-01 2.977034e-01 -1.506516e-09   -9.061443e-10 -6.907579e-10 2.453437e-01 2.000000e-01  6.250000e-02  
-7.500000e-01  -2.500000e-01  -1.750000e+00  0  3877 0  -4.126338e+00 3.093457e+00 -1.274833e+01   1.341761e-01 -4.805396e-01 1.880237e-01 2.000000e-01  6.250000e-02  
-5.000000e-01  -2.500000e-01  -2.000000e+00  0  3814 0  -2.409680e+00 -1.628256e-01 1.302284e-09   -6.338355e-10 1.057413e-09 1.715265e-01 2.000000e-01  6.250000e-02  
-5.000000e-01  -2.500000e-01  -1.750000e+00  0  3878 0  -5.951789e+00 2.849541e+00 -1.602045e+01   9.669615e-02 -2.006606e-01 2.080174e-01 2.000000e-01  6.250000e-02  
-2.500000e-01  -2.500000e-01  -2.000000e+00  0  3815 0  4.292394e-01 4.292394e-01 -1.108195e-09   -1.405809e-11 8.799281e-11 -1.236009e-11 2.000000e-01  6.250000e-02  
-2.500000e-01  -2.500000e-01  -1.750000e+00  0  3879 0  2.855400e+00 2.855400e+00 -1.437930e+01   1.198192e-01 -1.198192e-01 8.170619e-11 2.000000e-01  6.250000e-02  
0.000000e+00  -2.500000e-01  -2.000000e+00  0  3816 0  -8.538890e-11 -2.225708e-01 1.414872e-09   1.076382e-10 1.200932e-10 -2.229934e-11 2.000000e-01  6.250000e-02  
0.000000e+00  -2.500000e-01  -1.750000e+00  0  3880 0  -5.444938e-10 3.506995e+00 -1.579769e+01   1.840090e-01 -3.566651e-11 -5.585616e-11 2.000000e-01  6.250000e-02  
-1.750000e+00  0.000000e+00  -2.000000e+00  0  3067 0  -2.319745e+00 -2.724523e-07 2.290262e-07   3.777658e-10 -2.666819e-09 -1.421670e-07 2.000000e-01  6.250000e-02  
-2.000000e+00  0.000000e+00  -2.000000e+00  0  3066 0  -1.480542e-06 -3.920496e-08 -1.035243e-06   8.003331e-10 1.251773e-11 1.078353e-10 2.000000e-01  6.250000e-02  
-1.750000e+00  0.000000e+00  -1.750000e+00  0  3155 0  -1.764734e+01 5.924008e-07 -1.764734e+01   1.016013e-07 -1.572008e-08 -1.015003e-07 2.000000e-01  6.250000e-02  
-2.000000e+00  0.000000e+00  -1.750000e+00  0  3154 0  3.216980e-07 -2.697367e-07 -2.319745e+00   1.424289e-07 2.256219e-09 1.625419e-10 2.000000e-01  6.250000e-02  
-1.500000e+00  0.000000e+00  -2.000000e+00  0  3068 0  7.656197e+00 2.393381e-09 -2.378996e-07   7.502083e-11 3.842587e-08 -4.116109e-08 2.000000e-01  6.250000e-02  
-1.500000e+00  0.000000e+00  -1.750000e+00  0  3156 0  2.251002e+01 -8.903167e-08 -1.321126e+01   2.915593e-08 5.486308e-01 -2.964062e-08 2.000000e-01  6.250000e-02  
-1.250000e+00  0.000000e+00  -2.000000e+00  0  3819 0  3.160910e+00 -1.848734e-08 3.433825e-08   -1.661807e-11 -1.076394e-08 -5.724049e-09 2.000000e-01  6.250000e-02  
-1.250000e+00  0.000000e+00  -1.750000e+00  0  3883 0  -8.835872e+00 1.566348e-08 -1.615309e+01   -6.031030e-10 -9.841826e-01 -3.981495e-09 2.000000e-01  6.250000e-02  
-1.000000e+00  0.000000e+00  -2.000000e+00  0  3820 0  -1.323286e+00 -4.647445e-10 -7.787983e-09   7.536222e-11 1.443117e-09 1.876988e-10 2.000000e-01  6.250000e-02  
-1.000000e+00  0.000000e+00  -1.750000e+00  0  3884 0  5.085486e+00 1.379013e-09 -1.368717e+01   1.021149e-09 -8.680816e-01 2.592431e-11 2.000000e-01  6.250000e-02  
-7.500000e-01  0.000000e+00  -2.000000e+00  0  3821 0  -8.175258e-03 -1.484509e-09 1.412972e-09   1.373820e-10 -1.261435e-09 3.570857e-10 2.000000e-01  6.250000e-02  
-7.500000e-01  0.000000e+00  -1.750000e+00  0  3885 0  -9.754642e+00 1.198294e-09 -1.765546e+01   3.339224e-10 -4.268064e-01 2.681405e-10 2.000000e-01  6.250000e-02  
-5.000000e-01  0.000000e+00  -2.000000e+00  0  3822 0  -3.541409e+00 -1.852280e-10 2.034653e-09   5.737255e-11 -2.474675e-10 1.233668e-10 2.000000e-01  6.250000e-02  
-5.000000e-01  0.000000e+00  -1.750000e+00  0  3886 0  4.176404e+00 4.566576e-10 -2.027416e+01   -2.026822e-11 -1.960847e-01 1.205725e-10 2.000000e-01  6.250000e-02  
-2.500000e-01  0.000000e+00  -2.000000e+00  0  3823 0  -2.225708e-01 7.920251e-10 1.406129e-09   9.007975e-11 -4.069831e-11 1.292741e-10 2.000000e-01  6.250000e-02  
-2.500000e-01  0.000000e+00  -1.750000e+00  0  3887 0  3.506995e+00 1.466588e-10 -1.579769e+01   -2.317804e-11 -1.840090e-01 1.042810e-10 2.000000e-01  6.250000e-02  
0.000000e+00  0.000000e+00  -2.000000e+00  0  3824 0  7.313038e-10 -1.394315e-09 2.342175e-09   8.243878e-11 7.538867e-11 -7.843147e-11 2.000000e-01  6.250000e-02  
0.000000e+00  0.000000e+00  -1.750000e+00  0  3888 0  -6.758854e-10 7.737209e-10 -1.919194e+01   1.369910e-10 -3.288342e-11 1.941631e-11 2.000000e-01  6.250000e-02  
-2.000000e+00  -2.000000e+00  -1.500000e+00  0  1306 0  -1.873725e-05 1.423741e-06 -8.860886e+00   2.151782e-07 2.217040e-06 1.550705e-08 2.000000e-01  6.250000e-02  
-1.750000e+00  -2.000000e+00  -1.500000e+00  0  1307 0  -5.917864e+00 2.366623e-07 1.519630e+01   -1.486966e-08 -1.647543e+00 4.561761e-08 2.000000e-01  6.250000e-02  
-1.750000e+00  -1.750000e+00  -1.500000e+00  0  1318 0  -1.626667e+01 -1.626667e+01 9.612034e-01   2.103218e+00 -2.103217e+00 -5.482857e-08 2.000000e-01  6.250000e-02  
-2.000000e+00  -1.750000e+00  -1.500000e+00  0  1317 0  -3.038067e-06 -5.917853e+00 1.519628e+01   1.647542e+00 -3.478486e-07 4.175232e-07 2.000000e-01  6.250000e-02  
-1.500000e+00  -2.000000e+00  -1.500000e+00  0  1308 0  2.292437e+00 7.076906e-08 2.292437e+00   -1.176444e-07 1.649960e-07 1.197182e-07 2.000000e-01  6.250000e-02  
-1.500000e+00  -1.750000e+00  -1.500000e+00  0  1319 0  5.873100e+00 -1.848965e+01 5.873100e+00   2.169619e+00 1.363588e-07 -2.169619e+00 2.000000e-01  6.250000e-02  
-1.250000e+00  -2.000000e+00  -1.500000e+00  0  2275 0  -6.933286e+00 2.625059e-07 5.954007e+00   1.616842e-08 8.810853e-01 -4.405278e-08 2.000000e-01  6.250000e-02  
-1.250000e+00  -1.750000e+00  -1.500000e+00  0  2283 0  -2.896823e+00 -1.320086e+01 1.006052e+01   1.745500e+00 1.304701e+00 1.292825e+00 2.000000e-01  6.250000e-02  
-1.000000e+00  -2.000000e+00  -1.500000e+00  0  2276 0  4.350978e+00 -1.663758e-10 1.328762e+01   6.626994e-09 -9.878881e-01 -3.753197e-08 2.000000e-01  6.250000e-02  
-1.000000e+00  -1.750000e+00  -1.500000e+00  0  2284 0  2.281413e-01 -4.056758e+00 9.479587e+00   7.960004e-01 4.411461e-02 1.283464e+00 2.000000e-01  6.250000e-02  
-7.500000e-01  -2.000000e+00  -1.500000e+00  0  2277 0  -6.452036e+00 -3.619103e-08 2.655318e+00   3.722784e-10 1.766331e-01 -1.017204e-09 2.000000e-01  6.250000e-02  
-7.500000e-01  -1.750000e+00  -1.500000e+00  0  2285 0  -1.451409e+01 -1.068423e+01 2.148396e+01   1.745700e-01 -4.521981e-01 7.228574e-01 2.000000e-01  6.250000e-02  
-5.000000e-01  -2.000000e+00  -1.500000e+00  0  2278 0  -4.334520e+00 -7.882361e-08 9.872003e+00   3.538392e-09 9.444695e-01 2.406268e-09 2.000000e-01  6.250000e-02  
-5.000000e-01  -1.750000e+00  -1.500000e+00  0  2286 0  4.201678e+00 -1.287935e+01 2.171561e+01   6.069301e-01 7.093269e-01 7.124292e-01 2.000000e-01  6.250000e-02  