VARIABLES="X", "Y", "Z", "Maximum Refinment Level", "Temp_ID", "Thread","Ex (corner node)","Ey (corner node)","Ez (corner node)","Bx (center node)","By (center node)","Bz (center node)", "Local Time Step" , "log10(Local Particle Weight)" 
ZONE N=4913, E=4096, DATAPACKING=POINT, ZONETYPE=FEBRICK
-2.000000e+00  -2.000000e+00  -2.000000e+00  0  1064 0  -2.003801e-05 -1.769028e-05 -1.486517e-05   1.946231e-10 7.412587e-11 -7.546191e-10 2.000000e-01  6.250000e-02  
-1.750000e+00  -2.000000e+00  -2.000000e+00  0  1065 0  1.018184e+01 3.594368e-06 2.548854e-06   -1.933840e-09 -1.539191e-06 1.967107e-06 2.000000e-01  6.250000e-02  
-1.750000e+00  -1.750000e+00  -2.000000e+00  0  1076 0  -3.341273e-01 -3.341248e-01 -1.792199e-05   8.168257e-07 -7.991838e-07 -1.476117e-07 2.000000e-01  6.250000e-02  
-2.000000e+00  -1.750000e+00  -2.000000e+00  0  1075 0  3.462107e-06 1.018185e+01 2.429533e-06   1.501929e-06 -7.123605e-10 -2.180273e-06 2.000000e-01  6.250000e-02  
-2.000000e+00  -2.000000e+00  -1.750000e+00  0  1185 0  3.621683e-06 3.495761e-06 1.018185e+01   -1.952972e-06 2.203464e-06 1.270549e-08 2.000000e-01  6.250000e-02  
-1.750000e+00  -2.000000e+00  -1.750000e+00  0  1186 0  -3.341248e-01 -2.311624e-05 -3.341202e-01   -1.033412e-06 2.402777e-07 1.029644e-06 2.000000e-01  6.250000e-02  
-1.750000e+00  -1.750000e+00  -1.750000e+00  0  1197 0  1.643177e+00 1.643176e+00 1.643180e+00   -6.429125e-08 1.830754e-07 -1.207059e-07 2.000000e-01  6.250000e-02  
-2.000000e+00  -1.750000e+00  -1.750000e+00  0  1196 0  -2.492218e-05 -3.341260e-01 -3.341239e-01   -8.191112e-08 1.161123e-06 -1.172802e-06 2.000000e-01  6.250000e-02  
-1.500000e+00  -2.000000e+00  -2.000000e+00  0  1066 0  -8.860862e+00 -1.250353e-05 -1.020541e-05   -2.440922e-09 -1.434078e-06 1.747021e-06 2.000000e-01  6.250000e-02  
-1.500000e+00  -1.750000e+00  -2.000000e+00  0  1077 0  1.519629e+01 -5.917860e+00 -1.601759e-06   -3.046857e-07 3.626437e-08 -1.647542e+00 2.000000e-01  6.250000e-02  
-1.500000e+00  -2.000000e+00  -1.750000e+00  0  1187 0  1.519629e+01 -2.006083e-06 -5.917860e+00   3.757470e-07 1.647542e+00 -8.924768e-08 2.000000e-01  6.250000e-02  
-1.500000e+00  -1.750000e+00  -1.750000e+00  0  1198 0  9.612068e-01 -1.626666e+01 -1.626667e+01   -1.377974e-08 2.103217e+00 -2.103217e+00 2.000000e-01  6.250000e-02  
-1.250000e+00  -2.000000e+00  -2.000000e+00  0  2099 0  -2.694823e+01 -6.918007e-06 -5.817808e-06   -4.190426e-10 -1.204868e-06 1.457588e-06 2.000000e-01  6.250000e-02  
-1.250000e+00  -1.750000e+00  -2.000000e+00  0  2107 0  5.823758e+00 4.798407e-01 4.510650e-07   -5.863332e-07 -7.764611e-07 -1.121458e-01 2.000000e-01  6.250000e-02  
-1.250000e+00  -2.000000e+00  -1.750000e+00  0  2187 0  5.823758e+00 6.588070e-07 4.798411e-01   6.733462e-07 1.121458e-01 9.416564e-07 2.000000e-01  6.250000e-02  
-1.250000e+00  -1.750000e+00  -1.750000e+00  0  2195 0  3.261578e+00 -1.479632e+01 -1.479632e+01   2.750244e-08 -7.847240e-01 7.847242e-01 2.000000e-01  6.250000e-02  
-1.000000e+00  -2.000000e+00  -2.000000e+00  0  2100 0  3.900633e+00 -7.009979e-06 -5.961040e-06   -4.098055e-10 4.485643e-08 -1.858340e-08 2.000000e-01  6.250000e-02  
-1.000000e+00  -1.750000e+00  -2.000000e+00  0  2108 0  1.692472e+01 -1.503058e+01 -9.876668e-07   -4.483867e-07 -8.470982e-08 2.099067e+00 2.000000e-01  6.250000e-02  
-1.000000e+00  -2.000000e+00  -1.750000e+00  0  2188 0  1.692472e+01 -1.244523e-06 -1.503058e+01   5.008120e-07 -2.099067e+00 1.211639e-07 2.000000e-01  6.250000e-02  
-1.000000e+00  -1.750000e+00  -1.750000e+00  0  2196 0  8.244600e+00 -4.281531e+00 -4.281531e+00   2.170043e-08 -1.749940e+00 1.749940e+00 2.000000e-01  6.250000e-02  
-7.500000e-01  -2.000000e+00  -2.000000e+00  0  2101 0  -1.931975e+01 -1.414610e-07 -8.526905e-08   -5.833182e-10 -4.305687e-08 8.811600e-08 2.000000e-01  6.250000e-02  
-7.500000e-01  -1.750000e+00  -2.000000e+00  0  2109 0  -3.975957e+00 -1.816197e+01 -6.746357e-07   -3.047914e-07 -3.830540e-08 1.615961e+00 2.000000e-01  6.250000e-02  
-7.500000e-01  -2.000000e+00  -1.750000e+00  0  2189 0  -3.975957e+00 -7.377979e-07 -1.816197e+01   3.698067e-07 -1.615961e+00 6.526120e-08 2.000000e-01  6.250000e-02  
-7.500000e-01  -1.750000e+00  -1.750000e+00  0  2197 0  -1.818797e+01 -4.426280e+00 -4.426280e+00   2.095315e-08 -1.001605e+00 1.001605e+00 2.000000e-01  6.250000e-02  
-5.000000e-01  -2.000000e+00  -2.000000e+00  0  2102 0  -1.470717e+01 -1.246903e-06 -8.805185e-07   -3.100072e-10 -4.708901e-08 3.809782e-08 2.000000e-01  6.250000e-02  
-5.000000e-01  -1.750000e+00  -2.000000e+00  0  2110 0  -4.206524e+00 -3.391849e+00 -1.480415e-06   -1.623904e-07 2.479456e-09 8.041648e-01 2.000000e-01  6.250000e-02  
-5.000000e-01  -2.000000e+00  -1.750000e+00  0  2190 0  -4.206524e+00 -1.939439e-06 -3.391849e+00   2.142159e-07 -8.041648e-01 -1.346749e-08 2.000000e-01  6.250000e-02  
-5.000000e-01  -1.750000e+00  -1.750000e+00  0  2198 0  -2.350760e+00 -1.516257e+01 -1.516257e+01   2.364481e-08 -7.102941e-01 7.102941e-01 2.000000e-01  6.250000e-02  
-2.500000e-01  -2.000000e+00  -2.000000e+00  0  2103 0  3.891985e+00 -1.111742e-06 -8.747869e-07   2.404423e-10 2.987390e-08 -4.926375e-08 2.000000e-01  6.250000e-02  
-2.500000e-01  -1.750000e+00  -2.000000e+00  0  2111 0  -1.284917e-01 -1.724758e+01 2.410062e-07   -9.405050e-08 2.213433e-08 3.121938e-01 2.000000e-01  6.250000e-02  
-2.500000e-01  -2.000000e+00  -1.750000e+00  0  2191 0  -1.284918e-01 3.095026e-07 -1.724758e+01   1.245022e-07 -3.121938e-01 -3.513894e-08 2.000000e-01  6.250000e-02  
-2.500000e-01  -1.750000e+00  -1.750000e+00  0  2199 0  2.098704e+01 -2.329160e-01 -2.329159e-01   1.704550e-08 -3.877689e-01 3.877689e-01 2.000000e-01  6.250000e-02  
0.000000e+00  -2.000000e+00  -2.000000e+00  0  2104 0  -2.350011e-06 -1.628758e-06 -1.299883e-06   3.323554e-10 -2.401040e-09 2.510169e-09 2.000000e-01  6.250000e-02  
0.000000e+00  -1.750000e+00  -2.000000e+00  0  2112 0  1.895217e-06 -2.319752e+00 1.112788e-07   -4.993427e-08 -7.391212e-10 -8.612170e-07 2.000000e-01  6.250000e-02  
0.000000e+00  -2.000000e+00  -1.750000e+00  0  2192 0  1.890257e-06 1.286130e-07 -2.319752e+00   6.436232e-08 8.604906e-07 1.125898e-09 2.000000e-01  6.250000e-02  
0.000000e+00  -1.750000e+00  -1.750000e+00  0  2200 0  -5.180899e-06 -1.764734e+01 -1.764734e+01   1.638364e-08 6.570412e-07 -6.572439e-07 2.000000e-01  6.250000e-02  
-1.750000e+00  -1.500000e+00  -2.000000e+00  0  1087 0  -5.917862e+00 1.519629e+01 -1.702900e-06   -4.067813e-08 3.211730e-07 1.647542e+00 2.000000e-01  6.250000e-02  
-2.000000e+00  -1.500000e+00  -2.000000e+00  0  1086 0  -1.420411e-05 -8.860872e+00 -1.026885e-05   1.419216e-06 -7.709861e-10 -1.964399e-06 2.000000e-01  6.250000e-02  
-1.750000e+00  -1.500000e+00  -1.750000e+00  0  1208 0  -1.626667e+01 9.612068e-01 -1.626667e+01   -2.103217e+00 -3.026720e-08 2.103217e+00 2.000000e-01  6.250000e-02  
-2.000000e+00  -1.500000e+00  -1.750000e+00  0  1207 0  -2.262421e-06 1.519629e+01 -5.917859e+00   -1.647542e+00 -4.190232e-07 5.541804e-08 2.000000e-01  6.250000e-02  
-1.500000e+00  -1.500000e+00  -2.000000e+00  0  1088 0  2.292435e+00 2.292436e+00 -3.102578e-07   -7.198038e-07 7.288612e-07 -8.243385e-08 2.000000e-01  6.250000e-02  
-1.500000e+00  -1.500000e+00  -1.750000e+00  0  1209 0  5.873099e+00 5.873099e+00 -1.848965e+01   -2.169619e+00 2.169619e+00 -1.757927e-08 2.000000e-01  6.250000e-02  
-1.250000e+00  -1.500000e+00  -2.000000e+00  0  2115 0  -6.933286e+00 5.954008e+00 -1.622172e-06   8.602560e-08 -2.679913e-07 -8.810855e-01 2.000000e-01  6.250000e-02  
-1.250000e+00  -1.500000e+00  -1.750000e+00  0  2203 0  -2.896825e+00 1.006052e+01 -1.320086e+01   -1.745500e+00 -1.292825e+00 -1.304701e+00 2.000000e-01  6.250000e-02  
-1.000000e+00  -1.500000e+00  -2.000000e+00  0  2116 0  4.350977e+00 1.328762e+01 -8.943819e-08   3.136617e-08 -2.232670e-07 9.878880e-01 2.000000e-01  6.250000e-02  
-1.000000e+00  -1.500000e+00  -1.750000e+00  0  2204 0  2.281372e-01 9.479588e+00 -4.056758e+00   -7.960005e-01 -1.283463e+00 -4.411475e-02 2.000000e-01  6.250000e-02  
-7.500000e-01  -1.500000e+00  -2.000000e+00  0  2117 0  -6.452035e+00 2.655320e+00 2.394487e-07   -1.847048e-08 1.627806e-09 -1.766328e-01 2.000000e-01  6.250000e-02  
-7.500000e-01  -1.500000e+00  -1.750000e+00  0  2205 0  -1.451409e+01 2.148396e+01 -1.068424e+01   -1.745700e-01 -7.228572e-01 4.521981e-01 2.000000e-01  6.250000e-02  
-5.000000e-01  -1.500000e+00  -2.000000e+00  0  2118 0  -4.334517e+00 9.872007e+00 4.319867e-07   1.682883e-09 2.272931e-08 -9.444690e-01 2.000000e-01  6.250000e-02  
-5.000000e-01  -1.500000e+00  -1.750000e+00  0  2206 0  4.201674e+00 2.171561e+01 -1.287935e+01   -6.069302e-01 -7.124290e-01 -7.093264e-01 2.000000e-01  6.250000e-02  
-2.500000e-01  -1.500000e+00  -2.000000e+00  0  2119 0  1.030709e+00 7.617636e+00 -1.219503e-07   -2.546869e-08 1.317438e-08 -7.788971e-01 2.000000e-01  6.250000e-02  
-2.500000e-01  -1.500000e+00  -1.750000e+00  0  2207 0  -2.922480e+00 1.615729e+01 -4.686084e+00   -6.473489e-01 -4.559067e-01 -8.850527e-01 2.000000e-01  6.250000e-02  
0.000000e+00  -1.500000e+00  -2.000000e+00  0  2120 0  -2.544167e-07 7.656192e+00 -2.226173e-07   -3.695118e-08 4.468851e-10 -3.130547e-07 2.000000e-01  6.250000e-02  
0.000000e+00  -1.500000e+00  -1.750000e+00  0  2208 0  7.501695e-07 2.251002e+01 -1.321126e+01   -5.486305e-01 2.004384e-07 -2.315135e-07 2.000000e-01  6.250000e-02  
-1.750000e+00  -1.250000e+00  -2.000000e+00  0  3012 0  4.798382e-01 5.823758e+00 4.222278e-07   7.810126e-07 5.937608e-07 1.121467e-01 2.000000e-01  6.250000e-02  
-2.000000e+00  -1.250000e+00  -2.000000e+00  0  3011 0  -7.914699e-06 -2.694821e+01 -5.864881e-06   1.212747e-06 -1.483515e-10 -1.660779e-06 2.000000e-01  6.250000e-02  
-1.750000e+00  -1.250000e+00  -1.750000e+00  0  3100 0  -1.479633e+01 3.261577e+00 -1.479632e+01   7.847236e-01 -1.364868e-07 -7.847237e-01 2.000000e-01  6.250000e-02  
-2.000000e+00  -1.250000e+00  -1.750000e+00  0  3099 0  6.505380e-07 5.823758e+00 4.798393e-01   -1.121466e-01 -7.929048e-07 -1.070638e-06 2.000000e-01  6.250000e-02  
-1.500000e+00  -1.250000e+00  -2.000000e+00  0  3013 0  5.954008e+00 -6.933285e+00 -1.611926e-06   2.668060e-07 -7.766795e-08 8.810855e-01 2.000000e-01  6.250000e-02  
-1.500000e+00  -1.250000e+00  -1.750000e+00  0  3101 0  1.006052e+01 -2.896825e+00 -1.320086e+01   1.292825e+00 1.745500e+00 1.304701e+00 2.000000e-01  6.250000e-02  
-1.250000e+00  -1.250000e+00  -2.000000e+00  0  3779 0  -2.077860e+00 -2.077860e+00 1.925995e-07   2.272009e-07 -2.244121e-07 2.903739e-08 2.000000e-01  6.250000e-02  
-1.250000e+00  -1.250000e+00  -1.750000e+00  0  3843 0  -4.502653e+00 -4.502653e+00 -1.139271e+01   4.393734e-01 -4.393734e-01 9.496751e-11 2.000000e-01  6.250000e-02  
-1.000000e+00  -1.250000e+00  -2.000000e+00  0  3780 0  7.005718e+00 -9.606341e-01 -1.840979e-07   1.128388e-07 -1.555585e-07 -1.799077e+00 2.000000e-01  6.250000e-02  
-1.000000e+00  -1.250000e+00  -1.750000e+00  0  3844 0  4.690441e+00 -5.145813e+00 -1.500599e+01   3.967720e-01 -8.007025e-01 -2.586570e+00 2.000000e-01  6.250000e-02  
-7.500000e-01  -1.250000e+00  -2.000000e+00  0  3781 0  -1.424086e+01 -4.669342e+00 -9.354399e-08   -1.502365e-08 2.783593e-08 -3.799827e-01 2.000000e-01  6.250000e-02  
-7.500000e-01  -1.250000e+00  -1.750000e+00  0  3845 0  -5.304714e+00 -6.351331e+00 -1.818639e+01   7.854591e-01 -9.634994e-01 -4.415544e-01 2.000000e-01  6.250000e-02  
-5.000000e-01  -1.250000e+00  -2.000000e+00  0  3782 0  -7.984503e+00 2.548494e+00 -4.506360e-08   1.040874e-09 -7.077172e-09 1.385645e-01 2.000000e-01  6.250000e-02  
-5.000000e-01  -1.250000e+00  -1.750000e+00  0  3846 0  1.512657e+00 -7.153267e+00 -1.525589e+01   8.534360e-01 -6.408680e-01 -1.303730e-01 2.000000e-01  6.250000e-02  
-2.500000e-01  -1.250000e+00  -2.000000e+00  0  3783 0  2.507287e+00 -1.568412e+00 -1.478296e-08   -1.908140e-09 5.534823e-09 -1.612545e-01 2.000000e-01  6.250000e-02  
-2.500000e-01  -1.250000e+00  -1.750000e+00  0  3847 0  1.150864e+00 -5.978065e+00 -1.575092e+01   9.694948e-01 -3.776731e-01 -2.467387e-01 2.000000e-01  6.250000e-02  
0.000000e+00  -1.250000e+00  -2.000000e+00  0  3784 0  1.393076e-07 3.160907e+00 2.288483e-08   3.462850e-09 2.326881e-10 -1.710949e-08 2.000000e-01  6.250000e-02  
0.000000e+00  -1.250000e+00  -1.750000e+00  0  3848 0  -1.519544e-07 -8.835869e+00 -1.615309e+01   9.841827e-01 -2.134633e-08 -1.514494e-08 2.000000e-01  6.250000e-02  
-1.750000e+00  -1.000000e+00  -2.000000e+00  0  3023 0  -1.503058e+01 1.692472e+01 -1.036462e-06   7.826821e-08 4.602961e-07 -2.099066e+00 2.000000e-01  6.250000e-02  
-2.000000e+00  -1.000000e+00  -2.000000e+00  0  3022 0  -8.144795e-06 3.900634e+00 -6.084630e-06   -4.647313e-08 1.559315e-10 5.117031e-08 2.000000e-01  6.250000e-02  
-1.750000e+00  -1.000000e+00  -1.750000e+00  0  3111 0  -4.281531e+00 8.244602e+00 -4.281531e+00   1.749939e+00 -7.598844e-08 -1.749939e+00 2.000000e-01  6.250000e-02  
-2.000000e+00  -1.000000e+00  -1.750000e+00  0  3110 0  -1.413571e-06 1.692472e+01 -1.503058e+01   2.099066e+00 -6.082665e-07 -1.168361e-07 2.000000e-01  6.250000e-02  
-1.500000e+00  -1.000000e+00  -2.000000e+00  0  3024 0  1.328762e+01 4.350978e+00 -8.562416e-08   2.182036e-07 -2.753700e-08 -9.878879e-01 2.000000e-01  6.250000e-02  
-1.500000e+00  -1.000000e+00  -1.750000e+00  0  3112 0  9.479588e+00 2.281367e-01 -4.056758e+00   1.283463e+00 7.960005e-01 4.411484e-02 2.000000e-01  6.250000e-02  
-1.250000e+00  -1.000000e+00  -2.000000e+00  0  3787 0  -9.606342e-01 7.005718e+00 -1.901858e-07   1.544940e-07 -1.109351e-07 1.799077e+00 2.000000e-01  6.250000e-02  
-1.250000e+00  -1.000000e+00  -1.750000e+00  0  3851 0  -5.145813e+00 4.690441e+00 -1.500599e+01   8.007025e-01 -3.967720e-01 2.586570e+00 2.000000e-01  6.250000e-02  
-1.000000e+00  -1.000000e+00  -2.000000e+00  0  3788 0  -8.546416e+00 -8.546416e+00 -2.285494e-08   2.183628e-08 -2.103114e-08 -1.084337e-08 2.000000e-01  6.250000e-02  
-1.000000e+00  -1.000000e+00  -1.750000e+00  0  3852 0  8.213288e+00 8.213288e+00 -1.341381e+01   -7.614031e-02 7.614031e-02 -5.222957e-09 2.000000e-01  6.250000e-02  
-7.500000e-01  -1.000000e+00  -2.000000e+00  0  3789 0  9.947645e-01 5.717157e+00 -6.559542e-09   -1.669141e-08 7.151075e-10 1.356886e+00 2.000000e-01  6.250000e-02  
-7.500000e-01  -1.000000e+00  -1.750000e+00  0  3853 0  -3.690885e+00 1.594263e+01 -1.254345e+01   -1.741675e-01 -4.094781e-01 4.844264e-01 2.000000e-01  6.250000e-02  
-5.000000e-01  -1.000000e+00  -2.000000e+00  0  3790 0  -5.537638e-01 5.550191e-01 8.825344e-10   1.664855e-09 -7.234081e-09 9.852894e-01 2.000000e-01  6.250000e-02  
-5.000000e-01  -1.000000e+00  -1.750000e+00  0  3854 0  -5.235298e+00 -5.782189e+00 -1.293825e+01   5.093092e-01 -2.483055e-01 4.902207e-01 2.000000e-01  6.250000e-02  
-2.500000e-01  -1.000000e+00  -2.000000e+00  0  3791 0  -9.101533e-01 -5.012742e-01 4.148513e-09   -7.013021e-10 -4.311296e-10 -3.335171e-01 2.000000e-01  6.250000e-02  
-2.500000e-01  -1.000000e+00  -1.750000e+00  0  3855 0  7.669680e+00 4.212800e+00 -9.745600e+00   8.237322e-01 -2.187329e-01 -4.660112e-01 2.000000e-01  6.250000e-02  
0.000000e+00  -1.000000e+00  -2.000000e+00  0  3792 0  -1.492228e-09 -1.323288e+00 -6.810815e-09   -1.328289e-09 3.533962e-11 4.184821e-09 2.000000e-01  6.250000e-02  
0.000000e+00  -1.000000e+00  -1.750000e+00  0  3856 0  1.355007e-09 5.085482e+00 -1.368716e+01   8.680823e-01 6.230530e-09 2.216584e-09 2.000000e-01  6.250000e-02  
-1.750000e+00  -7.500000e-01  -2.000000e+00  0  3034 0  -1.816197e+01 -3.975959e+00 -6.230398e-07   4.233207e-08 3.115071e-07 -1.615962e+00 2.000000e-01  6.250000e-02  
-2.000000e+00  -7.500000e-01  -2.000000e+00  0  3033 0  -1.285558e-07 -1.931975e+01 -9.830063e-08   4.687338e-08 3.019772e-10 -7.705158e-08 2.000000e-01  6.250000e-02  
-1.750000e+00  -7.500000e-01  -1.750000e+00  0  3122 0  -4.426281e+00 -1.818797e+01 -4.426280e+00   1.001606e+00 -5.360504e-08 -1.001606e+00 2.000000e-01  6.250000e-02  
-2.000000e+00  -7.500000e-01  -1.750000e+00  0  3121 0  -8.553936e-07 -3.975959e+00 -1.816197e+01   1.615962e+00 -4.208249e-07 -6.446543e-08 2.000000e-01  6.250000e-02  
-1.500000e+00  -7.500000e-01  -2.000000e+00  0  3035 0  2.655320e+00 -6.452034e+00 2.494942e-07   6.223754e-10 1.608964e-08 1.766327e-01 2.000000e-01  6.250000e-02  
-1.500000e+00  -7.500000e-01  -1.750000e+00  0  3123 0  2.148396e+01 -1.451409e+01 -1.068424e+01   7.228573e-01 1.745700e-01 -4.521982e-01 2.000000e-01  6.250000e-02  
-1.250000e+00  -7.500000e-01  -2.000000e+00  0  3795 0  -4.669342e+00 -1.424086e+01 -9.562997e-08   -2.695531e-08 1.472464e-08 3.799827e-01 2.000000e-01  6.250000e-02  
-1.250000e+00  -7.500000e-01  -1.750000e+00  0  3859 0  -6.351331e+00 -5.304714e+00 -1.818639e+01   9.634994e-01 -7.854591e-01 4.415544e-01 2.000000e-01  6.250000e-02  
-1.000000e+00  -7.500000e-01  -2.000000e+00  0  3796 0  5.717157e+00 9.947645e-01 -5.566874e-09   -7.676393e-10 1.690811e-08 -1.356886e+00 2.000000e-01  6.250000e-02  
-1.000000e+00  -7.500000e-01  -1.750000e+00  0  3860 0  1.594263e+01 -3.690885e+00 -1.254345e+01   4.094781e-01 1.741675e-01 -4.844264e-01 2.000000e-01  6.250000e-02  
-7.500000e-01  -7.500000e-01  -2.000000e+00  0  3797 0  -5.957451e+00 -5.957451e+00 7.040601e-08   1.304973e-08 -1.322053e-08 1.167948e-09 2.000000e-01  6.250000e-02  
-7.500000e-01  -7.500000e-01  -1.750000e+00  0  3861 0  -7.672625e+00 -7.672625e+00 -7.974153e+00   3.091734e-01 -3.091734e-01 7.459442e-10 2.000000e-01  6.250000e-02  
-5.000000e-01  -7.500000e-01  -2.000000e+00  0  3798 0  -2.780139e+00 -2.671047e+00 -1.754096e-08   4.428250e-09 -5.944518e-09 1.145207e-01 2.000000e-01  6.250000e-02  
-5.000000e-01  -7.500000e-01  -1.750000e+00  0  3862 0  1.201739e+00 -5.044139e+00 -1.732581e+01   6.010985e-01 -2.741931e-01 4.322299e-01 2.000000e-01  6.250000e-02  
-2.500000e-01  -7.500000e-01  -2.000000e+00  0  3799 0  2.977044e-01 9.095961e-01 -1.302377e-09   5.054730e-10 8.048945e-10 -2.453434e-01 2.000000e-01  6.250000e-02  
-2.500000e-01  -7.500000e-01  -1.750000e+00  0  3863 0  3.093452e+00 -4.126342e+00 -1.274833e+01   4.805399e-01 -1.341760e-01 -1.880234e-01 2.000000e-01  6.250000e-02  
0.000000e+00  -7.500000e-01  -2.000000e+00  0  3800 0  -3.228045e-09 -8.176040e-03 1.052263e-09   7.300045e-10 -1.826558e-11 2.526573e-09 2.000000e-01  6.250000e-02  
0.000000e+00  -7.500000e-01  -1.750000e+00  0  3864 0  -8.378762e-09 -9.754641e+00 -1.765546e+01   4.268069e-01 1.344779e-09 1.893919e-09 2.000000e-01  6.250000e-02  
-1.750000e+00  -5.000000e-01  -2.000000e+00  0  3045 0  -3.391849e+00 -4.206527e+00 -1.538326e-06   -1.412759e-09 1.711132e-07 -8.041671e-01 2.000000e-01  6.250000e-02  
-2.000000e+00  -5.000000e-01  -2.000000e+00  0  3044 0  -1.350689e-06 -1.470721e+01 -1.003207e-06   4.403017e-08 3.940208e-10 -5.799563e-08 2.000000e-01  6.250000e-02  
-1.750000e+00  -5.000000e-01  -1.750000e+00  0  3133 0  -1.516257e+01 -2.350759e+00 -1.516257e+01   7.102954e-01 -3.279540e-08 -7.102954e-01 2.000000e-01  6.250000e-02  
-2.000000e+00  -5.000000e-01  -1.750000e+00  0  3132 0  -2.125878e-06 -4.206527e+00 -3.391849e+00   8.041671e-01 -2.343832e-07 4.337750e-09 2.000000e-01  6.250000e-02  
-1.500000e+00  -5.000000e-01  -2.000000e+00  0  3046 0  9.872007e+00 -4.334519e+00 4.340971e-07   -2.098560e-08 -2.521110e-09 9.444688e-01 2.000000e-01  6.250000e-02  
-1.500000e+00  -5.000000e-01  -1.750000e+00  0  3134 0  2.171561e+01 4.201674e+00 -1.287935e+01   7.124292e-01 6.069302e-01 7.093263e-01 2.000000e-01  6.250000e-02  
-1.250000e+00  -5.000000e-01  -2.000000e+00  0  3803 0  2.548494e+00 -7.984503e+00 -4.535045e-08   7.254346e-09 -7.587156e-10 -1.385646e-01 2.000000e-01  6.250000e-02  
-1.250000e+00  -5.000000e-01  -1.750000e+00  0  3867 0  -7.153268e+00 1.512657e+00 -1.525589e+01   6.408680e-01 -8.534360e-01 1.303729e-01 2.000000e-01  6.250000e-02  
-1.000000e+00  -5.000000e-01  -2.000000e+00  0  3804 0  5.550192e-01 -5.537638e-01 1.292202e-09   7.288813e-09 -1.549474e-09 -9.852894e-01 2.000000e-01  6.250000e-02  
-1.000000e+00  -5.000000e-01  -1.750000e+00  0  3868 0  -5.782189e+00 -5.235298e+00 -1.293825e+01   2.483055e-01 -5.093092e-01 -4.902207e-01 2.000000e-01  6.250000e-02  
-7.500000e-01  -5.000000e-01  -2.000000e+00  0  3805 0  -2.671047e+00 -2.780139e+00 -1.826982e-08   6.042194e-09 -4.616976e-09 -1.145207e-01 2.000000e-01  6.250000e-02  
-7.500000e-01  -5.000000e-01  -1.750000e+00  0  3869 0  -5.044139e+00 1.201739e+00 -1.732581e+01   2.741931e-01 -6.010985e-01 -4.322299e-01 2.000000e-01  6.250000e-02  
-5.000000e-01  -5.000000e-01  -2.000000e+00  0  3806 0  -1.626848e+00 -1.626848e+00 7.768840e-09   1.463727e-09 -1.504895e-09 -2.573179e-10 2.000000e-01  6.250000e-02  
-5.000000e-01  -5.000000e-01  -1.750000e+00  0  3870 0  2.412926e+00 2.412926e+00 -2.248339e+01   3.651566e-01 -3.651566e-01 -2.186002e-10 2.000000e-01  6.250000e-02  
-2.500000e-01  -5.000000e-01  -2.000000e+00  0  3807 0  -1.628251e-01 -2.409679e+00 4.773991e-10   -6.695415e-10 6.151933e-10 -1.715261e-01 2.000000e-01  6.250000e-02  
-2.500000e-01  -5.000000e-01  -1.750000e+00  0  3871 0  2.849542e+00 -5.951784e+00 -1.602045e+01   2.006606e-01 -9.669616e-02 -2.080171e-01 2.000000e-01  6.250000e-02  
0.000000e+00  -5.000000e-01  -2.000000e+00  0  3808 0  7.955777e-10 -3.541412e+00 1.601065e-09   2.100141e-10 6.218137e-12 -3.740167e-10 2.000000e-01  6.250000e-02  
0.000000e+00  -5.000000e-01  -1.750000e+00  0  3872 0  9.606954e-10 4.176402e+00 -2.027416e+01   1.960847e-01 -7.640825e-11 -2.344923e-10 2.000000e-01  6.250000e-02  
-1.750000e+00  -2.500000e-01  -2.000000e+00  0  3056 0  -1.724758e+01 -1.284930e-01 2.466516e-07   -2.799241e-08 9.977221e-08 -3.121952e-01 2.000000e-01  6.250000e-02  
-2.000000e+00  -2.500000e-01  -2.000000e+00  0  3055 0  -1.243077e-06 3.891980e+00 -9.094385e-07   -3.969855e-08 3.971371e-10 5.153585e-08 2.000000e-01  6.250000e-02  
-1.750000e+00  -2.500000e-01  -1.750000e+00  0  3144 0  -2.329155e-01 2.098704e+01 -2.329154e-01   3.877697e-01 -2.328115e-08 -3.877697e-01 2.000000e-01  6.250000e-02  
-2.000000e+00  -2.500000e-01  -1.750000e+00  0  3143 0  3.427735e-07 -1.284931e-01 -1.724758e+01   3.121952e-01 -1.373245e-07 3.649323e-08 2.000000e-01  6.250000e-02  
-1.500000e+00  -2.500000e-01  -2.000000e+00  0  3057 0  7.617637e+00 1.030709e+00 -1.238231e-07   -1.432880e-08 2.613448e-08 7.788969e-01 2.000000e-01  6.250000e-02  
-1.500000e+00  -2.500000e-01  -1.750000e+00  0  3145 0  1.615729e+01 -2.922480e+00 -4.686084e+00   4.559069e-01 6.473489e-01 8.850526e-01 2.000000e-01  6.250000e-02  
-1.250000e+00  -2.500000e-01  -2.000000e+00  0  3811 0  -1.568412e+00 2.507287e+00 -1.545987e-08   -5.863357e-09 2.153684e-09 1.612544e-01 2.000000e-01  6.250000e-02  
-1.250000e+00  -2.500000e-01  -1.750000e+00  0  3875 0  -5.978065e+00 1.150864e+00 -1.575092e+01   3.776732e-01 -9.694948e-01 2.467387e-01 2.000000e-01  6.250000e-02  
-1.000000e+00  -2.500000e-01  -2.000000e+00  0  3812 0  -5.012742e-01 -9.101533e-01 3.926272e-09   4.019766e-10 7.850168e-10 3.335171e-01 2.000000e-01  6.250000e-02  
-1.000000e+00  -2.500000e-01  -1.750000e+00  0  3876 0  4.212800e+00 7.669680e+00 -9.745600e+00   2.187329e-01 -8.237322e-01 4.660112e-01 2.000000e-01  6.250000e-02  
-7.500000e-01  -2.500000e-01  -2.000000e+00  0  3813 0  9.095961e-01 2.977044e-01 -1.073315e-09   -7.357285e-10 -5.983136e-10 2.453434e-01 2.000000e-01  6.250000e-02  
-7.500000e-01  -2.500000e-01  -1.750000e+00  0  3877 0  -4.126342e+00 3.093452e+00 -1.274833e+01   1.341760e-01 -4.805399e-01 1.880234e-01 2.000000e-01  6.250000e-02  
-5.000000e-01  -2.500000e-01  -2.000000e+00  0  3814 0  -2.409679e+00 -1.628251e-01 1.332975e-09   -6.049130e-10 5.812019e-10 1.715261e-01 2.000000e-01  6.250000e-02  
-5.000000e-01  -2.500000e-01  -1.750000e+00  0  3878 0  -5.951784e+00 2.849542e+00 -1.602045e+01   9.669616e-02 -2.006606e-01 2.080171e-01 2.000000e-01  6.250000e-02  
-2.500000e-01  -2.500000e-01  -2.000000e+00  0  3815 0  4.292387e-01 4.292387e-01 -3.040085e-10   -9.135048e-11 8.249609e-11 -2.294029e-11 2.000000e-01  6.250000e-02  
-2.500000e-01  -2.500000e-01  -1.750000e+00  0  3879 0  2.855398e+00 2.855398e+00 -1.437930e+01   1.198190e-01 -1.198190e-01 -5.241285e-11 2.000000e-01  6.250000e-02  
0.000000e+00  -2.500000e-01  -2.000000e+00  0  3816 0  2.886741e-10 -2.225722e-01 1.283327e-09   8.483450e-11 8.778134e-11 -1.166372e-10 2.000000e-01  6.250000e-02  
0.000000e+00  -2.500000e-01  -1.750000e+00  0  3880 0  6.825478e-10 3.506992e+00 -1.579769e+01   1.840087e-01 -9.955867e-11 -1.651134e-10 2.000000e-01  6.250000e-02  
-1.750000e+00  0.000000e+00  -2.000000e+00  0  3067 0  -2.319752e+00 1.688614e-06 1.123255e-07   1.172325e-10 5.031831e-08 7.907798e-07 2.000000e-01  6.250000e-02  
-2.000000e+00  0.000000e+00  -2.000000e+00  0  3066 0  -1.807217e-06 -2.314783e-06 -1.302616e-06   6.093270e-10 2.775889e-10 -2.268006e-09 2.000000e-01  6.250000e-02  
-1.750000e+00  0.000000e+00  -1.750000e+00  0  3155 0  -1.764734e+01 -4.644565e-06 -1.764734e+01   -6.001094e-07 -2.417349e-08 5.996200e-07 2.000000e-01  6.250000e-02  
-2.000000e+00  0.000000e+00  -1.750000e+00  0  3154 0  1.453423e-07 1.688089e-06 -2.319752e+00   -7.916605e-07 -7.109105e-08 -1.037572e-09 2.000000e-01  6.250000e-02  
-1.500000e+00  0.000000e+00  -2.000000e+00  0  3068 0  7.656192e+00 -2.468869e-07 -2.232670e-07   -1.400200e-10 3.697667e-08 2.784847e-07 2.000000e-01  6.250000e-02  
-1.500000e+00  0.000000e+00  -1.750000e+00  0  3156 0  2.251002e+01 6.644225e-07 -1.321126e+01   -1.809666e-07 5.486305e-01 2.057881e-07 2.000000e-01  6.250000e-02  
-1.250000e+00  0.000000e+00  -2.000000e+00  0  3819 0  3.160907e+00 1.256539e-07 2.279551e-08   -6.144171e-11 -3.441792e-09 1.638369e-08 2.000000e-01  6.250000e-02  
-1.250000e+00  0.000000e+00  -1.750000e+00  0  3883 0  -8.835869e+00 -1.362837e-07 -1.615309e+01   1.901165e-08 -9.841827e-01 1.458384e-08 2.000000e-01  6.250000e-02  
-1.000000e+00  0.000000e+00  -2.000000e+00  0  3820 0  -1.323288e+00 -2.561148e-09 -7.049097e-09   -3.189138e-11 1.396753e-09 -3.854800e-09 2.000000e-01  6.250000e-02  
-1.000000e+00  0.000000e+00  -1.750000e+00  0  3884 0  5.085482e+00 4.795969e-10 -1.368716e+01   -5.562334e-09 -8.680823e-01 -2.077515e-09 2.000000e-01  6.250000e-02  
-7.500000e-01  0.000000e+00  -2.000000e+00  0  3821 0  -8.176039e-03 -1.563427e-09 1.474463e-09   -9.648171e-12 -7.727553e-10 -2.166503e-09 2.000000e-01  6.250000e-02  
-7.500000e-01  0.000000e+00  -1.750000e+00  0  3885 0  -9.754641e+00 -6.710694e-09 -1.765546e+01   -1.397649e-09 -4.268069e-01 -1.732769e-09 2.000000e-01  6.250000e-02  
-5.000000e-01  0.000000e+00  -2.000000e+00  0  3822 0  -3.541412e+00 4.397519e-10 1.558808e-09   5.172279e-12 -2.597866e-10 4.817183e-10 2.000000e-01  6.250000e-02  
-5.000000e-01  0.000000e+00  -1.750000e+00  0  3886 0  4.176402e+00 1.283987e-09 -2.027416e+01   -2.469290e-11 -1.960847e-01 2.822443e-10 2.000000e-01  6.250000e-02  
-2.500000e-01  0.000000e+00  -2.000000e+00  0  3823 0  -2.225722e-01 -9.257002e-10 1.529862e-09   8.953116e-13 -8.190115e-12 -8.321893e-11 2.000000e-01  6.250000e-02  
-2.500000e-01  0.000000e+00  -1.750000e+00  0  3887 0  3.506992e+00 -2.077532e-10 -1.579769e+01   1.035927e-10 -1.840087e-01 -3.151174e-11 2.000000e-01  6.250000e-02  
0.000000e+00  0.000000e+00  -2.000000e+00  0  3824 0  9.378882e-10 1.164400e-09 3.028454e-09   1.446648e-11 7.298420e-11 -1.137963e-10 2.000000e-01  6.250000e-02  
0.000000e+00  0.000000e+00  -1.750000e+00  0  3888 0  -1.191164e-09 -9.346794e-10 -1.919194e+01   4.105873e-12 -7.854711e-12 -8.068681e-11 2.000000e-01  6.250000e-02  
-2.000000e+00  -2.000000e+00  -1.500000e+00  0  1306 0  -1.418361e-05 -1.254606e-05 -8.860866e+00   -1.751586e-06 1.961668e-06 1.598008e-08 2.000000e-01  6.250000e-02  
-1.750000e+00  -2.000000e+00  -1.500000e+00  0  1307 0  -5.917862e+00 -2.033379e-06 1.519629e+01   8.798093e-08 -1.647542e+00 -3.768490e-07 2.000000e-01  6.250000e-02  
-1.750000e+00  -1.750000e+00  -1.500000e+00  0  1318 0  -1.626667e+01 -1.626667e+01 9.612042e-01   2.103218e+00 -2.103217e+00 4.375137e-08 2.000000e-01  6.250000e-02  
-2.000000e+00  -1.750000e+00  -1.500000e+00  0  1317 0  -2.202272e-06 -5.917859e+00 1.519629e+01   1.647542e+00 -5.660590e-08 4.133128e-07 2.000000e-01  6.250000e-02  
-1.500000e+00  -2.000000e+00  -1.500000e+00  0  1308 0  2.292436e+00 -5.415191e-07 2.292436e+00   9.356418e-07 2.752162e-08 -9.367355e-07 2.000000e-01  6.250000e-02  
-1.500000e+00  -1.750000e+00  -1.500000e+00  0  1319 0  5.873098e+00 -1.848965e+01 5.873099e+00   2.169619e+00 1.095724e-07 -2.169619e+00 2.000000e-01  6.250000e-02  
-1.250000e+00  -2.000000e+00  -1.500000e+00  0  2275 0  -6.933286e+00 -2.051638e-06 5.954008e+00   -8.736529e-08 8.810854e-01 3.210262e-07 2.000000e-01  6.250000e-02  
-1.250000e+00  -1.750000e+00  -1.500000e+00  0  2283 0  -2.896824e+00 -1.320086e+01 1.006052e+01   1.745500e+00 1.304701e+00 1.292825e+00 2.000000e-01  6.250000e-02  
-1.000000e+00  -2.000000e+00  -1.500000e+00  0  2276 0  4.350977e+00 -8.302413e-08 1.328762e+01   -3.084968e-08 -9.878881e-01 2.674233e-07 2.000000e-01  6.250000e-02  
-1.000000e+00  -1.750000e+00  -1.500000e+00  0  2284 0  2.281373e-01 -4.056759e+00 9.479588e+00   7.960006e-01 4.411467e-02 1.283463e+00 2.000000e-01  6.250000e-02  
-7.500000e-01  -2.000000e+00  -1.500000e+00  0  2277 0  -6.452034e+00 3.014098e-07 2.655320e+00   1.994631e-08 1.766328e-01 -1.492308e-09 2.000000e-01  6.250000e-02  
-7.500000e-01  -1.750000e+00  -1.500000e+00  0  2285 0  -1.451409e+01 -1.068424e+01 2.148396e+01   1.745700e-01 -4.521981e-01 7.228572e-01 2.000000e-01  6.250000e-02  
-5.000000e-01  -2.000000e+00  -1.500000e+00  0  2278 0  -4.334517e+00 5.453279e-07 9.872007e+00   -2.508234e-09 9.444690e-01 -3.178854e-08 2.000000e-01  6.250000e-02  
-5.000000e-01  -1.750000e+00  -1.500000e+00  0  2286 0  4.201674e+00 -1.287935e+01 2.171561e+01   6.069302e-01 7.093264e-01 7.124290e-01 2.000000e-01  6.250000e-02  