VARIABLES="X", "Y", "Z", "Maximum Refinment Level", "Temp_ID", "Thread","Ex (corner node)","Ey (corner node)","Ez (corner node)","Bx (center node)","By (center node)","Bz (center node)", "Local Time Step" , "log10(Local Particle Weight)" 
ZONE N=4913, E=4096, DATAPACKING=POINT, ZONETYPE=FEBRICK
-2.000000e+00  -2.000000e+00  -2.000000e+00  0  1064 0  2.122024e-05 -2.117693e-06 2.090248e-05   -2.781397e-07 1.206624e-07 -3.585263e-06 2.000000e-01  6.250000e-02  
-1.750000e+00  -2.000000e+00  -2.000000e+00  0  1065 0  5.354599e-02 -7.091074e-01 -2.455884e-05   5.123483e-07 -5.505512e-07 4.756294e-01 2.000000e-01  6.250000e-02  
-1.750000e+00  -1.750000e+00  -2.000000e+00  0  1076 0  -3.535064e+00 -3.535046e+00 1.199623e-05   3.237788e-07 -6.319592e-07 -2.921313e-06 2.000000e-01  6.250000e-02  
-2.000000e+00  -1.750000e+00  -2.000000e+00  0  1075 0  -7.091114e-01 5.348257e-02 -2.287894e-05   6.081974e-07 -6.230248e-07 -4.756361e-01 2.000000e-01  6.250000e-02  
-2.000000e+00  -2.000000e+00  -1.750000e+00  0  1185 0  -8.776634e-05 -8.607790e-05 4.139068e+00   -2.136843e-05 2.718196e-05 -1.768231e-06 2.000000e-01  6.250000e-02  
-1.750000e+00  -2.000000e+00  -1.750000e+00  0  1186 0  -5.328529e+00 -3.471794e+00 -2.654182e-01   -4.451092e-01 9.062677e-02 -4.790184e-02 2.000000e-01  6.250000e-02  
-1.750000e+00  -1.750000e+00  -1.750000e+00  0  1197 0  -5.398329e+00 -5.398317e+00 -4.876106e+00   -4.183964e-01 4.183999e-01 -1.196964e-06 2.000000e-01  6.250000e-02  
-2.000000e+00  -1.750000e+00  -1.750000e+00  0  1196 0  -3.471801e+00 -5.328532e+00 -2.654418e-01   -9.061988e-02 4.451132e-01 4.789708e-02 2.000000e-01  6.250000e-02  
-1.500000e+00  -2.000000e+00  -2.000000e+00  0  1066 0  9.498142e+00 1.021868e+00 9.721309e-06   1.575894e-06 -5.729470e-07 2.530084e-01 2.000000e-01  6.250000e-02  
-1.500000e+00  -1.750000e+00  -2.000000e+00  0  1077 0  4.819645e+00 2.345730e+00 -1.717415e-05   -3.609045e-06 3.174406e-06 -8.552206e-01 2.000000e-01  6.250000e-02  
-1.500000e+00  -2.000000e+00  -1.750000e+00  0  1187 0  4.612151e+00 2.799967e-01 3.264919e+00   -3.291700e-01 1.810832e+00 -1.070979e-01 2.000000e-01  6.250000e-02  
-1.500000e+00  -1.750000e+00  -1.750000e+00  0  1198 0  4.488044e+00 3.298265e+00 2.345919e+00   -2.719012e-01 2.127222e+00 -8.781829e-01 2.000000e-01  6.250000e-02  
-1.250000e+00  -2.000000e+00  -2.000000e+00  0  2099 0  9.399489e+00 2.031402e+00 -7.807097e-06   -5.779831e-07 1.996848e-06 3.173535e-01 2.000000e-01  6.250000e-02  
-1.250000e+00  -1.750000e+00  -2.000000e+00  0  2107 0  -4.924107e+00 -3.287159e+00 1.175748e-05   -4.258066e-06 2.982562e-07 -5.307584e-02 2.000000e-01  6.250000e-02  
-1.250000e+00  -2.000000e+00  -1.750000e+00  0  2187 0  -3.446461e+00 -8.005560e-03 -2.172478e+00   -4.895501e-01 4.070252e-01 2.196667e-01 2.000000e-01  6.250000e-02  
-1.250000e+00  -1.750000e+00  -1.750000e+00  0  2195 0  -1.031943e+01 4.639595e+00 3.769928e+00   2.613907e-02 6.673051e-01 -2.866496e-01 2.000000e-01  6.250000e-02  
-1.000000e+00  -2.000000e+00  -2.000000e+00  0  2100 0  7.181467e+00 3.076026e-01 -3.985054e-05   -6.909783e-07 -5.163019e-07 1.312627e-01 2.000000e-01  6.250000e-02  
-1.000000e+00  -1.750000e+00  -2.000000e+00  0  2108 0  -9.403200e-01 6.476524e+00 1.190977e-05   -1.088344e-06 2.441024e-06 -2.885687e-01 2.000000e-01  6.250000e-02  
-1.000000e+00  -2.000000e+00  -1.750000e+00  0  2188 0  -4.128890e+00 -1.127161e+00 4.356641e+00   -3.349761e-01 -3.788688e-02 1.217451e-02 2.000000e-01  6.250000e-02  
-1.000000e+00  -1.750000e+00  -1.750000e+00  0  2196 0  -3.766410e-01 3.060436e+00 2.441344e+00   4.157854e-01 8.830238e-02 -7.689136e-01 2.000000e-01  6.250000e-02  
-7.500000e-01  -2.000000e+00  -2.000000e+00  0  2101 0  -7.802628e+00 2.038278e+00 2.699757e-05   8.928401e-07 3.596578e-06 -2.250890e-02 2.000000e-01  6.250000e-02  
-7.500000e-01  -1.750000e+00  -2.000000e+00  0  2109 0  6.744743e+00 1.075074e+01 1.388558e-05   -2.307534e-06 7.033106e-06 -1.343119e-01 2.000000e-01  6.250000e-02  
-7.500000e-01  -2.000000e+00  -1.750000e+00  0  2189 0  7.750953e+00 -1.219372e+00 9.708196e+00   1.060129e-01 1.183623e-01 -2.735138e-01 2.000000e-01  6.250000e-02  
-7.500000e-01  -1.750000e+00  -1.750000e+00  0  2197 0  -7.606160e+00 -2.203687e+00 -2.951420e+00   6.426792e-01 4.034036e-01 -3.629941e-01 2.000000e-01  6.250000e-02  
-5.000000e-01  -2.000000e+00  -2.000000e+00  0  2102 0  -2.764177e-01 -6.317437e+00 7.866585e-06   -4.308736e-07 4.818056e-06 4.876247e-01 2.000000e-01  6.250000e-02  
-5.000000e-01  -1.750000e+00  -2.000000e+00  0  2110 0  2.104872e+00 -1.223014e+00 -1.808371e-05   -2.628479e-06 9.774628e-06 1.261592e+00 2.000000e-01  6.250000e-02  
-5.000000e-01  -2.000000e+00  -1.750000e+00  0  2190 0  -1.193039e+00 1.884451e+00 3.979961e+00   4.157746e-01 -7.529357e-01 2.315652e-01 2.000000e-01  6.250000e-02  
-5.000000e-01  -1.750000e+00  -1.750000e+00  0  2198 0  2.111143e+00 -2.324247e+00 -3.907993e+00   5.509374e-01 -1.112156e-01 8.525510e-01 2.000000e-01  6.250000e-02  
-2.500000e-01  -2.000000e+00  -2.000000e+00  0  2103 0  8.145055e+00 1.235721e+00 -2.359374e-06   -9.107789e-07 2.144533e-06 -2.308951e-01 2.000000e-01  6.250000e-02  
-2.500000e-01  -1.750000e+00  -2.000000e+00  0  2111 0  -4.561607e+00 2.109455e+00 -1.410436e-06   -4.367211e-07 3.478412e-06 -1.937178e-02 2.000000e-01  6.250000e-02  
-2.500000e-01  -2.000000e+00  -1.750000e+00  0  2191 0  -3.573942e+00 1.277756e+00 8.129701e-01   2.653941e-01 1.624896e-01 2.111830e-03 2.000000e-01  6.250000e-02  
-2.500000e-01  -1.750000e+00  -1.750000e+00  0  2199 0  2.092969e+00 -4.761510e+00 -6.462691e+00   3.148387e-01 -6.654046e-01 9.853674e-01 2.000000e-01  6.250000e-02  
0.000000e+00  -2.000000e+00  -2.000000e+00  0  2104 0  -1.058585e-04 7.860015e-05 4.324184e-07   -3.293708e-08 3.548965e-08 -6.646412e-01 2.000000e-01  6.250000e-02  
0.000000e+00  -1.750000e+00  -2.000000e+00  0  2112 0  9.080529e-01 -4.245056e+00 -1.124466e-05   1.153833e-06 -1.041351e-06 -6.280814e-01 2.000000e-01  6.250000e-02  
0.000000e+00  -2.000000e+00  -1.750000e+00  0  2192 0  1.481966e-05 -1.689424e-05 -4.960302e+00   1.473971e-05 -9.514714e-06 -4.725872e-01 2.000000e-01  6.250000e-02  
0.000000e+00  -1.750000e+00  -1.750000e+00  0  2200 0  -1.860159e+00 4.366575e+00 4.950578e+00   -6.215380e-02 -2.369161e-01 -3.507117e-01 2.000000e-01  6.250000e-02  
-1.750000e+00  -1.500000e+00  -2.000000e+00  0  1087 0  2.345750e+00 4.819670e+00 -1.559729e-05   -3.232770e-06 3.367045e-06 8.552150e-01 2.000000e-01  6.250000e-02  
-2.000000e+00  -1.500000e+00  -2.000000e+00  0  1086 0  1.021874e+00 9.498165e+00 9.700336e-06   7.372035e-07 -1.595430e-06 -2.530194e-01 2.000000e-01  6.250000e-02  
-1.750000e+00  -1.500000e+00  -1.750000e+00  0  1208 0  3.298286e+00 4.488073e+00 2.345927e+00   -2.127225e+00 2.719024e-01 8.781795e-01 2.000000e-01  6.250000e-02  
-2.000000e+00  -1.500000e+00  -1.750000e+00  0  1207 0  2.800075e-01 4.612159e+00 3.264919e+00   -1.810833e+00 3.291708e-01 1.070910e-01 2.000000e-01  6.250000e-02  
-1.500000e+00  -1.500000e+00  -2.000000e+00  0  1088 0  -6.674361e+00 -6.674347e+00 -3.676420e-05   -9.817496e-06 9.737775e-06 3.438104e-06 2.000000e-01  6.250000e-02  
-1.500000e+00  -1.500000e+00  -1.750000e+00  0  1209 0  -4.015424e+00 -4.015421e+00 2.018232e-01   -5.666428e-01 5.666405e-01 1.608236e-06 2.000000e-01  6.250000e-02  
-1.250000e+00  -1.500000e+00  -2.000000e+00  0  2115 0  -1.261390e+00 2.168003e+00 -2.919067e-06   -4.165241e-07 2.867583e-06 -5.116330e-01 2.000000e-01  6.250000e-02  
-1.250000e+00  -1.500000e+00  -1.750000e+00  0  2203 0  3.471187e+00 -3.805199e+00 2.466134e+00   1.171208e+00 5.960567e-01 -6.591737e-01 2.000000e-01  6.250000e-02  
-1.000000e+00  -1.500000e+00  -2.000000e+00  0  2116 0  4.476661e+00 1.988398e+00 -1.831151e-06   4.567057e-06 3.905163e-06 7.651723e-01 2.000000e-01  6.250000e-02  
-1.000000e+00  -1.500000e+00  -1.750000e+00  0  2204 0  -2.314565e+00 -6.585860e+00 -8.250794e+00   5.214557e-01 5.087438e-01 1.537532e+00 2.000000e-01  6.250000e-02  
-7.500000e-01  -1.500000e+00  -2.000000e+00  0  2117 0  4.580344e+00 6.696500e+00 -8.845714e-06   8.246718e-07 4.560238e-06 2.544848e+00 2.000000e-01  6.250000e-02  
-7.500000e-01  -1.500000e+00  -1.750000e+00  0  2205 0  6.604899e+00 1.916160e+00 4.162483e+00   -8.699657e-01 9.200848e-01 2.708926e+00 2.000000e-01  6.250000e-02  
-5.000000e-01  -1.500000e+00  -2.000000e+00  0  2118 0  5.978319e+00 1.555191e+00 -2.050055e-05   -1.283771e-06 6.742185e-06 1.171786e+00 2.000000e-01  6.250000e-02  
-5.000000e-01  -1.500000e+00  -1.750000e+00  0  2206 0  -1.770253e+00 -6.347516e+00 5.997444e+00   -1.630149e-01 -2.765454e-01 6.788794e-01 2.000000e-01  6.250000e-02  
-2.500000e-01  -1.500000e+00  -2.000000e+00  0  2119 0  8.378316e+00 -1.614734e+00 -1.119354e-07   5.207329e-07 1.717127e-06 1.381162e-02 2.000000e-01  6.250000e-02  
-2.500000e-01  -1.500000e+00  -1.750000e+00  0  2207 0  3.808479e+00 -4.880838e+00 5.285908e+00   2.259830e-01 -8.424596e-01 1.005072e-01 2.000000e-01  6.250000e-02  
0.000000e+00  -1.500000e+00  -2.000000e+00  0  2120 0  8.686825e-01 8.140433e-02 2.738595e-06   1.124729e-06 -1.499482e-06 -3.965155e-01 2.000000e-01  6.250000e-02  
0.000000e+00  -1.500000e+00  -1.750000e+00  0  2208 0  -1.935109e+00 -1.983436e-01 3.562979e+00   -7.643525e-01 -1.149637e-01 -3.428893e-01 2.000000e-01  6.250000e-02  
-1.750000e+00  -1.250000e+00  -2.000000e+00  0  3012 0  -3.287169e+00 -4.924084e+00 1.220580e-05   -2.412982e-07 4.307955e-06 5.306381e-02 2.000000e-01  6.250000e-02  
-2.000000e+00  -1.250000e+00  -2.000000e+00  0  3011 0  2.031331e+00 9.399447e+00 -7.212146e-06   -1.887635e-06 5.723026e-07 -3.173504e-01 2.000000e-01  6.250000e-02  
-1.750000e+00  -1.250000e+00  -1.750000e+00  0  3100 0  4.639582e+00 -1.031942e+01 3.769922e+00   -6.673004e-01 -2.613884e-02 2.866415e-01 2.000000e-01  6.250000e-02  
-2.000000e+00  -1.250000e+00  -1.750000e+00  0  3099 0  -7.998754e-03 -3.446445e+00 -2.172487e+00   -4.070143e-01 4.895512e-01 -2.196647e-01 2.000000e-01  6.250000e-02  
-1.500000e+00  -1.250000e+00  -2.000000e+00  0  3013 0  2.168010e+00 -1.261381e+00 -3.010399e-06   -2.864543e-06 4.526709e-07 5.116310e-01 2.000000e-01  6.250000e-02  
-1.500000e+00  -1.250000e+00  -1.750000e+00  0  3101 0  -3.805207e+00 3.471185e+00 2.466141e+00   -5.960568e-01 -1.171209e+00 6.591732e-01 2.000000e-01  6.250000e-02  
-1.250000e+00  -1.250000e+00  -2.000000e+00  0  3779 0  -1.427693e+00 -1.427692e+00 -5.508082e-06   5.752983e-07 -6.305848e-07 1.081860e-06 2.000000e-01  6.250000e-02  
-1.250000e+00  -1.250000e+00  -1.750000e+00  0  3843 0  -6.130462e+00 -6.130458e+00 -8.296568e+00   1.025853e-01 -1.025864e-01 1.222713e-06 2.000000e-01  6.250000e-02  
-1.000000e+00  -1.250000e+00  -2.000000e+00  0  3780 0  -3.559956e-01 1.404112e+00 4.322595e-06   2.844350e-06 1.930930e-06 3.810622e-02 2.000000e-01  6.250000e-02  
-1.000000e+00  -1.250000e+00  -1.750000e+00  0  3844 0  -3.911216e+00 -4.390320e+00 -8.555962e-01   4.292041e-01 7.673184e-01 1.764868e-01 2.000000e-01  6.250000e-02  
-7.500000e-01  -1.250000e+00  -2.000000e+00  0  3781 0  5.595862e-02 -7.875867e+00 5.740397e-06   2.080887e-06 1.447118e-06 1.645726e+00 2.000000e-01  6.250000e-02  
-7.500000e-01  -1.250000e+00  -1.750000e+00  0  3845 0  1.032967e+00 1.073429e+00 -4.793247e-02   2.919412e-01 2.086251e+00 6.748607e-01 2.000000e-01  6.250000e-02  
-5.000000e-01  -1.250000e+00  -2.000000e+00  0  3782 0  -6.938147e+00 5.385873e+00 -5.365795e-06   6.119826e-07 1.813239e-06 1.225485e+00 2.000000e-01  6.250000e-02  
-5.000000e-01  -1.250000e+00  -1.750000e+00  0  3846 0  3.220376e-01 4.247428e-01 -4.890585e+00   -3.341794e-01 7.562904e-01 2.453584e-01 2.000000e-01  6.250000e-02  
-2.500000e-01  -1.250000e+00  -2.000000e+00  0  3783 0  9.436102e-01 1.665091e+00 -2.765583e-07   3.042933e-07 4.146927e-07 1.094849e+00 2.000000e-01  6.250000e-02  
-2.500000e-01  -1.250000e+00  -1.750000e+00  0  3847 0  -4.471009e-01 -1.534794e+00 -4.477608e+00   -8.575901e-01 4.456366e-01 2.946717e-01 2.000000e-01  6.250000e-02  
0.000000e+00  -1.250000e+00  -2.000000e+00  0  3784 0  6.849212e-03 -1.091288e+01 -1.766629e-06   -3.047284e-07 -4.635610e-07 2.835072e-01 2.000000e-01  6.250000e-02  
0.000000e+00  -1.250000e+00  -1.750000e+00  0  3848 0  1.130373e+00 -7.586603e+00 1.878436e+00   -4.774990e-01 7.176552e-02 7.878130e-02 2.000000e-01  6.250000e-02  
-1.750000e+00  -1.000000e+00  -2.000000e+00  0  3023 0  6.476504e+00 -9.403160e-01 1.225557e-05   -2.512093e-06 1.108834e-06 2.885611e-01 2.000000e-01  6.250000e-02  
-2.000000e+00  -1.000000e+00  -2.000000e+00  0  3022 0  3.077015e-01 7.181397e+00 -4.075319e-05   5.194763e-07 6.365153e-07 -1.312620e-01 2.000000e-01  6.250000e-02  
-1.750000e+00  -1.000000e+00  -1.750000e+00  0  3111 0  3.060438e+00 -3.766527e-01 2.441336e+00   -8.829445e-02 -4.157846e-01 7.689070e-01 2.000000e-01  6.250000e-02  
-2.000000e+00  -1.000000e+00  -1.750000e+00  0  3110 0  -1.127174e+00 -4.128901e+00 4.356640e+00   3.789871e-02 3.349809e-01 -1.217145e-02 2.000000e-01  6.250000e-02  
-1.500000e+00  -1.000000e+00  -2.000000e+00  0  3024 0  1.988407e+00 4.476635e+00 -1.491421e-06   -3.918127e-06 -4.549945e-06 -7.651736e-01 2.000000e-01  6.250000e-02  
-1.500000e+00  -1.000000e+00  -1.750000e+00  0  3112 0  -6.585849e+00 -2.314556e+00 -8.250788e+00   -5.087401e-01 -5.214553e-01 -1.537533e+00 2.000000e-01  6.250000e-02  
-1.250000e+00  -1.000000e+00  -2.000000e+00  0  3787 0  1.404110e+00 -3.559822e-01 4.163983e-06   -1.910352e-06 -2.903744e-06 -3.810607e-02 2.000000e-01  6.250000e-02  
-1.250000e+00  -1.000000e+00  -1.750000e+00  0  3851 0  -4.390320e+00 -3.911213e+00 -8.555916e-01   -7.673185e-01 -4.292052e-01 -1.764859e-01 2.000000e-01  6.250000e-02  
-1.000000e+00  -1.000000e+00  -2.000000e+00  0  3788 0  4.733529e+00 4.733531e+00 2.832370e-06   -4.721056e-07 4.444540e-07 1.969415e-07 2.000000e-01  6.250000e-02  
-1.000000e+00  -1.000000e+00  -1.750000e+00  0  3852 0  -1.810984e+00 -1.810983e+00 -6.234804e-01   -2.501650e-01 2.501641e-01 -8.178786e-08 2.000000e-01  6.250000e-02  
-7.500000e-01  -1.000000e+00  -2.000000e+00  0  3789 0  7.095828e+00 -5.058027e-01 2.874080e-06   -3.990986e-07 1.416840e-06 -2.550378e+00 2.000000e-01  6.250000e-02  
-7.500000e-01  -1.000000e+00  -1.750000e+00  0  3853 0  2.683753e+00 -1.196217e+00 2.485305e+00   5.237023e-01 2.902666e+00 -2.653756e+00 2.000000e-01  6.250000e-02  
-5.000000e-01  -1.000000e+00  -2.000000e+00  0  3790 0  4.500574e+00 -3.267850e+00 5.808206e-07   -6.584781e-07 1.728914e-08 -1.382099e+00 2.000000e-01  6.250000e-02  
-5.000000e-01  -1.000000e+00  -1.750000e+00  0  3854 0  1.071176e+00 5.292623e+00 9.180166e-02   7.288497e-01 1.994222e+00 -9.611000e-01 2.000000e-01  6.250000e-02  
-2.500000e-01  -1.000000e+00  -2.000000e+00  0  3791 0  1.197294e+01 -3.024425e+00 -6.566497e-07   -3.587346e-07 4.798127e-08 1.135025e+00 2.000000e-01  6.250000e-02  
-2.500000e-01  -1.000000e+00  -1.750000e+00  0  3855 0  7.521931e+00 4.734237e+00 -3.865327e-01   1.612700e+00 8.211410e-01 5.204547e-01 2.000000e-01  6.250000e-02  
0.000000e+00  -1.000000e+00  -2.000000e+00  0  3792 0  3.119106e+00 1.296725e+01 4.787089e-08   -2.409216e-07 1.096044e-07 1.664858e-01 2.000000e-01  6.250000e-02  
0.000000e+00  -1.000000e+00  -1.750000e+00  0  3856 0  -7.867669e-02 -4.879198e+00 -4.195303e+00   2.525062e+00 9.958465e-02 9.018279e-02 2.000000e-01  6.250000e-02  
-1.750000e+00  -7.500000e-01  -2.000000e+00  0  3034 0  1.075075e+01 6.744726e+00 1.401198e-05   -7.050342e-06 2.285613e-06 1.343079e-01 2.000000e-01  6.250000e-02  
-2.000000e+00  -7.500000e-01  -2.000000e+00  0  3033 0  2.038244e+00 -7.802691e+00 2.790146e-05   -3.604380e-06 -9.116500e-07 2.250224e-02 2.000000e-01  6.250000e-02  
-1.750000e+00  -7.500000e-01  -1.750000e+00  0  3122 0  -2.203706e+00 -7.606130e+00 -2.951431e+00   -4.034031e-01 -6.426792e-01 3.629910e-01 2.000000e-01  6.250000e-02  
-2.000000e+00  -7.500000e-01  -1.750000e+00  0  3121 0  -1.219368e+00 7.750965e+00 9.708196e+00   -1.183620e-01 -1.060115e-01 2.735109e-01 2.000000e-01  6.250000e-02  
-1.500000e+00  -7.500000e-01  -2.000000e+00  0  3035 0  6.696483e+00 4.580345e+00 -8.775687e-06   -4.531959e-06 -8.371630e-07 -2.544846e+00 2.000000e-01  6.250000e-02  
-1.500000e+00  -7.500000e-01  -1.750000e+00  0  3123 0  1.916160e+00 6.604904e+00 4.162485e+00   -9.200836e-01 8.699679e-01 -2.708924e+00 2.000000e-01  6.250000e-02  
-1.250000e+00  -7.500000e-01  -2.000000e+00  0  3795 0  -7.875872e+00 5.596152e-02 5.747400e-06   -1.398949e-06 -2.089594e-06 -1.645727e+00 2.000000e-01  6.250000e-02  
-1.250000e+00  -7.500000e-01  -1.750000e+00  0  3859 0  1.073434e+00 1.032959e+00 -4.792774e-02   -2.086250e+00 -2.919418e-01 -6.748611e-01 2.000000e-01  6.250000e-02  
-1.000000e+00  -7.500000e-01  -2.000000e+00  0  3796 0  -5.058031e-01 7.095828e+00 2.958350e-06   -1.417434e-06 3.777093e-07 2.550379e+00 2.000000e-01  6.250000e-02  
-1.000000e+00  -7.500000e-01  -1.750000e+00  0  3860 0  -1.196221e+00 2.683755e+00 2.485306e+00   -2.902665e+00 -5.237025e-01 2.653756e+00 2.000000e-01  6.250000e-02  
-7.500000e-01  -7.500000e-01  -2.000000e+00  0  3797 0  -2.403117e+00 -2.403115e+00 -1.075439e-06   -5.081916e-07 4.937408e-07 -6.010468e-08 2.000000e-01  6.250000e-02  
-7.500000e-01  -7.500000e-01  -1.750000e+00  0  3861 0  -6.009261e+00 -6.009260e+00 -1.543273e+00   -1.754887e+00 1.754887e+00 1.511245e-07 2.000000e-01  6.250000e-02  
-5.000000e-01  -7.500000e-01  -2.000000e+00  0  3798 0  4.174717e+00 -2.568292e-01 2.303149e-07   7.234284e-08 -7.692256e-07 -6.419712e-01 2.000000e-01  6.250000e-02  
-5.000000e-01  -7.500000e-01  -1.750000e+00  0  3862 0  2.700331e-01 -4.285534e+00 -9.620131e-01   -6.428950e-01 1.513937e+00 -6.486674e-01 2.000000e-01  6.250000e-02  
-2.500000e-01  -7.500000e-01  -2.000000e+00  0  3799 0  -1.019885e+01 3.336208e+00 -4.185938e-07   7.819376e-09 -5.678351e-07 1.102550e-01 2.000000e-01  6.250000e-02  
-2.500000e-01  -7.500000e-01  -1.750000e+00  0  3863 0  2.563539e+00 3.177846e+00 -9.477193e-01   1.026076e+00 -1.426574e-01 -7.982143e-01 2.000000e-01  6.250000e-02  
0.000000e+00  -7.500000e-01  -2.000000e+00  0  3800 0  8.608752e-01 -1.255994e+00 7.263728e-07   -4.376361e-08 -1.049414e-07 -3.242842e-01 2.000000e-01  6.250000e-02  
0.000000e+00  -7.500000e-01  -1.750000e+00  0  3864 0  8.161060e-01 -4.428342e-02 -4.709376e+00   2.544714e+00 1.097355e-01 -2.022931e-01 2.000000e-01  6.250000e-02  
-1.750000e+00  -5.000000e-01  -2.000000e+00  0  3045 0  -1.223025e+00 2.104891e+00 -1.876993e-05   -9.781715e-06 2.663186e-06 -1.261598e+00 2.000000e-01  6.250000e-02  
-2.000000e+00  -5.000000e-01  -2.000000e+00  0  3044 0  -6.317385e+00 -2.764199e-01 7.845462e-06   -4.804095e-06 4.548125e-07 -4.876221e-01 2.000000e-01  6.250000e-02  
-1.750000e+00  -5.000000e-01  -1.750000e+00  0  3133 0  -2.324248e+00 2.111155e+00 -3.907986e+00   1.112184e-01 -5.509376e-01 -8.525538e-01 2.000000e-01  6.250000e-02  
-2.000000e+00  -5.000000e-01  -1.750000e+00  0  3132 0  1.884445e+00 -1.193028e+00 3.979981e+00   7.529439e-01 -4.157729e-01 -2.315647e-01 2.000000e-01  6.250000e-02  
-1.500000e+00  -5.000000e-01  -2.000000e+00  0  3046 0  1.555199e+00 5.978343e+00 -2.073547e-05   -6.728578e-06 1.267141e-06 -1.171785e+00 2.000000e-01  6.250000e-02  
-1.500000e+00  -5.000000e-01  -1.750000e+00  0  3134 0  -6.347505e+00 -1.770254e+00 5.997450e+00   2.765460e-01 1.630152e-01 -6.788784e-01 2.000000e-01  6.250000e-02  
-1.250000e+00  -5.000000e-01  -2.000000e+00  0  3803 0  5.385877e+00 -6.938152e+00 -5.364041e-06   -1.787783e-06 -6.156197e-07 -1.225487e+00 2.000000e-01  6.250000e-02  
-1.250000e+00  -5.000000e-01  -1.750000e+00  0  3867 0  4.247460e-01 3.220420e-01 -4.890585e+00   -7.562896e-01 3.341798e-01 -2.453602e-01 2.000000e-01  6.250000e-02  
-1.000000e+00  -5.000000e-01  -2.000000e+00  0  3804 0  -3.267850e+00 4.500575e+00 7.075787e-07   -2.239643e-08 6.643716e-07 1.382098e+00 2.000000e-01  6.250000e-02  
-1.000000e+00  -5.000000e-01  -1.750000e+00  0  3868 0  5.292625e+00 1.071177e+00 9.180335e-02   -1.994223e+00 -7.288499e-01 9.610995e-01 2.000000e-01  6.250000e-02  
-7.500000e-01  -5.000000e-01  -2.000000e+00  0  3805 0  -2.568284e-01 4.174717e+00 2.235855e-07   7.647664e-07 -8.588245e-08 6.419713e-01 2.000000e-01  6.250000e-02  
-7.500000e-01  -5.000000e-01  -1.750000e+00  0  3869 0  -4.285534e+00 2.700344e-01 -9.620136e-01   -1.513937e+00 6.428949e-01 6.486674e-01 2.000000e-01  6.250000e-02  
-5.000000e-01  -5.000000e-01  -2.000000e+00  0  3806 0  -8.937815e+00 -8.937815e+00 -5.044147e-07   3.384916e-07 -3.358871e-07 -3.138553e-07 2.000000e-01  6.250000e-02  
-5.000000e-01  -5.000000e-01  -1.750000e+00  0  3870 0  -2.035299e+00 -2.035301e+00 7.712826e+00   -1.450288e+00 1.450289e+00 -1.889472e-07 2.000000e-01  6.250000e-02  
-2.500000e-01  -5.000000e-01  -2.000000e+00  0  3807 0  1.418021e+00 1.164140e+00 3.054817e-07   -4.162050e-08 -2.279304e-07 4.680990e-01 2.000000e-01  6.250000e-02  
-2.500000e-01  -5.000000e-01  -1.750000e+00  0  3871 0  5.849544e+00 2.136982e+00 1.443860e+00   -7.227388e-01 -7.077485e-01 -3.845165e-01 2.000000e-01  6.250000e-02  
0.000000e+00  -5.000000e-01  -2.000000e+00  0  3808 0  -1.478454e+00 -7.064997e+00 -6.479187e-07   -1.845583e-07 -2.707021e-08 3.817395e-02 2.000000e-01  6.250000e-02  
0.000000e+00  -5.000000e-01  -1.750000e+00  0  3872 0  -8.253960e-02 -1.764455e+00 1.206115e+00   5.067196e-02 -3.438176e-02 9.442679e-02 2.000000e-01  6.250000e-02  
-1.750000e+00  -2.500000e-01  -2.000000e+00  0  3056 0  2.109439e+00 -4.561620e+00 -1.335071e-06   -3.503739e-06 4.296924e-07 1.935281e-02 2.000000e-01  6.250000e-02  
-2.000000e+00  -2.500000e-01  -2.000000e+00  0  3055 0  1.235688e+00 8.145027e+00 -2.508256e-06   -2.157031e-06 9.053685e-07 2.308886e-01 2.000000e-01  6.250000e-02  
-1.750000e+00  -2.500000e-01  -1.750000e+00  0  3144 0  -4.761495e+00 2.092953e+00 -6.462683e+00   6.654185e-01 -3.148388e-01 -9.853827e-01 2.000000e-01  6.250000e-02  
-2.000000e+00  -2.500000e-01  -1.750000e+00  0  3143 0  1.277746e+00 -3.573945e+00 8.129436e-01   -1.624709e-01 -2.653892e-01 -2.115631e-03 2.000000e-01  6.250000e-02  
-1.500000e+00  -2.500000e-01  -2.000000e+00  0  3057 0  -1.614724e+00 8.378305e+00 -1.855996e-07   -1.710462e-06 -5.552556e-07 -1.381676e-02 2.000000e-01  6.250000e-02  
-1.500000e+00  -2.500000e-01  -1.750000e+00  0  3145 0  -4.880834e+00 3.808454e+00 5.285907e+00   8.424661e-01 -2.259798e-01 -1.005120e-01 2.000000e-01  6.250000e-02  
-1.250000e+00  -2.500000e-01  -2.000000e+00  0  3811 0  1.665084e+00 9.436080e-01 -1.235588e-07   -4.395217e-07 -3.155650e-07 -1.094851e+00 2.000000e-01  6.250000e-02  
-1.250000e+00  -2.500000e-01  -1.750000e+00  0  3875 0  -1.534803e+00 -4.470980e-01 -4.477603e+00   -4.456370e-01 8.575923e-01 -2.946727e-01 2.000000e-01  6.250000e-02  
-1.000000e+00  -2.500000e-01  -2.000000e+00  0  3812 0  -3.024422e+00 1.197295e+01 -6.561172e-07   -6.912516e-08 3.774173e-07 -1.135025e+00 2.000000e-01  6.250000e-02  
-1.000000e+00  -2.500000e-01  -1.750000e+00  0  3876 0  4.734236e+00 7.521930e+00 -3.865333e-01   -8.211426e-01 -1.612702e+00 -5.204550e-01 2.000000e-01  6.250000e-02  
-7.500000e-01  -2.500000e-01  -2.000000e+00  0  3813 0  3.336210e+00 -1.019885e+01 -4.029506e-07   5.720695e-07 -1.206394e-08 -1.102548e-01 2.000000e-01  6.250000e-02  
-7.500000e-01  -2.500000e-01  -1.750000e+00  0  3877 0  3.177848e+00 2.563535e+00 -9.477181e-01   1.426571e-01 -1.026076e+00 7.982143e-01 2.000000e-01  6.250000e-02  
-5.000000e-01  -2.500000e-01  -2.000000e+00  0  3814 0  1.164141e+00 1.418024e+00 3.065263e-07   2.278360e-07 4.220547e-08 -4.680996e-01 2.000000e-01  6.250000e-02  
-5.000000e-01  -2.500000e-01  -1.750000e+00  0  3878 0  2.136981e+00 5.849545e+00 1.443860e+00   7.077485e-01 7.227387e-01 3.845160e-01 2.000000e-01  6.250000e-02  
-2.500000e-01  -2.500000e-01  -2.000000e+00  0  3815 0  -1.466036e+00 -1.466036e+00 -1.012647e-06   -8.209835e-08 8.158771e-08 -3.073622e-08 2.000000e-01  6.250000e-02  
-2.500000e-01  -2.500000e-01  -1.750000e+00  0  3879 0  3.746206e+00 3.746206e+00 4.931017e+00   2.340546e-01 -2.340546e-01 -4.332629e-08 2.000000e-01  6.250000e-02  
0.000000e+00  -2.500000e-01  -2.000000e+00  0  3816 0  -4.366109e-01 -2.582138e+00 1.797476e-07   9.555940e-09 6.838929e-08 1.446834e-01 2.000000e-01  6.250000e-02  
0.000000e+00  -2.500000e-01  -1.750000e+00  0  3880 0  3.425633e-01 -1.213713e-01 -5.210535e+00   -5.562731e-03 -1.804727e-01 7.964925e-02 2.000000e-01  6.250000e-02  
-1.750000e+00  0.000000e+00  -2.000000e+00  0  3067 0  -4.245119e+00 9.080468e-01 -1.142933e-05   1.068969e-06 -1.175347e-06 6.280794e-01 2.000000e-01  6.250000e-02  
-2.000000e+00  0.000000e+00  -2.000000e+00  0  3066 0  7.435789e-05 -1.002644e-04 4.387178e-07   -9.320582e-09 7.268642e-09 6.646334e-01 2.000000e-01  6.250000e-02  
-1.750000e+00  0.000000e+00  -1.750000e+00  0  3155 0  4.366525e+00 -1.860137e+00 4.950535e+00   2.369161e-01 6.215184e-02 3.507107e-01 2.000000e-01  6.250000e-02  
-2.000000e+00  0.000000e+00  -1.750000e+00  0  3154 0  -1.893306e-05 1.405595e-05 -4.960358e+00   9.294185e-06 -1.365231e-05 4.725822e-01 2.000000e-01  6.250000e-02  
-1.500000e+00  0.000000e+00  -2.000000e+00  0  3068 0  8.140435e-02 8.686834e-01 2.756504e-06   1.485842e-06 -1.141890e-06 3.965156e-01 2.000000e-01  6.250000e-02  
-1.500000e+00  0.000000e+00  -1.750000e+00  0  3156 0  -1.983465e-01 -1.935114e+00 3.562986e+00   1.149641e-01 7.643590e-01 3.428902e-01 2.000000e-01  6.250000e-02  
-1.250000e+00  0.000000e+00  -2.000000e+00  0  3819 0  -1.091288e+01 6.846151e-03 -1.778064e-06   3.938743e-07 3.045239e-07 -2.835091e-01 2.000000e-01  6.250000e-02  
-1.250000e+00  0.000000e+00  -1.750000e+00  0  3883 0  -7.586605e+00 1.130368e+00 1.878435e+00   -7.176513e-02 4.775019e-01 -7.878257e-02 2.000000e-01  6.250000e-02  
-1.000000e+00  0.000000e+00  -2.000000e+00  0  3820 0  1.296725e+01 3.119107e+00 1.538651e-08   -1.548061e-07 2.548130e-07 -1.664853e-01 2.000000e-01  6.250000e-02  
-1.000000e+00  0.000000e+00  -1.750000e+00  0  3884 0  -4.879203e+00 -7.867756e-02 -4.195300e+00   -9.958482e-02 -2.525064e+00 -9.018295e-02 2.000000e-01  6.250000e-02  
-7.500000e-01  0.000000e+00  -2.000000e+00  0  3821 0  -1.255995e+00 8.608749e-01 7.414842e-07   9.923591e-08 4.776847e-08 3.242844e-01 2.000000e-01  6.250000e-02  
-7.500000e-01  0.000000e+00  -1.750000e+00  0  3885 0  -4.428142e-02 8.161050e-01 -4.709377e+00   -1.097358e-01 -2.544714e+00 2.022932e-01 2.000000e-01  6.250000e-02  
-5.000000e-01  0.000000e+00  -2.000000e+00  0  3822 0  -7.064998e+00 -1.478454e+00 -6.381881e-07   2.590954e-08 1.850875e-07 -3.817428e-02 2.000000e-01  6.250000e-02  
-5.000000e-01  0.000000e+00  -1.750000e+00  0  3886 0  -1.764456e+00 -8.253948e-02 1.206115e+00   3.438160e-02 -5.067230e-02 -9.442699e-02 2.000000e-01  6.250000e-02  
-2.500000e-01  0.000000e+00  -2.000000e+00  0  3823 0  -2.582138e+00 -4.366108e-01 1.802560e-07   -7.028329e-08 -1.122702e-08 -1.446834e-01 2.000000e-01  6.250000e-02  
-2.500000e-01  0.000000e+00  -1.750000e+00  0  3887 0  -1.213713e-01 3.425632e-01 -5.210535e+00   1.804726e-01 5.562675e-03 -7.964922e-02 2.000000e-01  6.250000e-02  
0.000000e+00  0.000000e+00  -2.000000e+00  0  3824 0  1.607034e-06 1.446315e-06 -1.367913e-06   -2.986446e-09 -1.544367e-10 2.817532e-08 2.000000e-01  6.250000e-02  
0.000000e+00  0.000000e+00  -1.750000e+00  0  3888 0  -2.443255e-07 -2.053404e-07 -1.078332e+00   3.672526e-07 -4.354865e-07 2.501761e-08 2.000000e-01  6.250000e-02  
-2.000000e+00  -2.000000e+00  -1.500000e+00  0  1306 0  -7.194214e-06 -9.190322e-06 8.165313e+00   -1.783646e-05 2.168374e-05 -1.574698e-07 2.000000e-01  6.250000e-02  
-1.750000e+00  -2.000000e+00  -1.500000e+00  0  1307 0  2.790861e+00 8.285852e-01 3.711373e+00   5.007729e-02 -1.573870e+00 -6.336482e-01 2.000000e-01  6.250000e-02  
-1.750000e+00  -1.750000e+00  -1.500000e+00  0  1318 0  -1.392229e+00 -1.392229e+00 1.180327e+00   1.293521e+00 -1.293518e+00 -9.332230e-07 2.000000e-01  6.250000e-02  
-2.000000e+00  -1.750000e+00  -1.500000e+00  0  1317 0  8.285913e-01 2.790851e+00 3.711365e+00   1.573871e+00 -5.007402e-02 6.336461e-01 2.000000e-01  6.250000e-02  
-1.500000e+00  -2.000000e+00  -1.500000e+00  0  1308 0  -6.620513e+00 3.392648e+00 -8.028112e+00   -1.244616e-01 2.132895e-01 -3.705903e-01 2.000000e-01  6.250000e-02  
-1.500000e+00  -1.750000e+00  -1.500000e+00  0  1319 0  -4.984388e+00 -5.267164e-01 -2.853286e+00   1.175214e-01 7.761146e-01 -4.281808e-01 2.000000e-01  6.250000e-02  
-1.250000e+00  -2.000000e+00  -1.500000e+00  0  2275 0  -2.125225e+00 -3.642097e-01 2.900372e-01   -4.500619e-01 3.455779e-01 1.409014e-01 2.000000e-01  6.250000e-02  
-1.250000e+00  -1.750000e+00  -1.500000e+00  0  2283 0  3.545870e+00 -2.943259e-01 -1.928941e+00   -6.637580e-01 8.507029e-01 -1.069794e+00 2.000000e-01  6.250000e-02  
-1.000000e+00  -2.000000e+00  -1.500000e+00  0  2276 0  9.044176e+00 -3.271821e-02 3.523554e+00   -1.869265e-01 -1.262896e+00 -7.472088e-03 2.000000e-01  6.250000e-02  
-1.000000e+00  -1.750000e+00  -1.500000e+00  0  2284 0  -1.688797e+00 1.636299e+00 -1.087139e+00   1.415560e-01 -2.394402e+00 -1.260116e+00 2.000000e-01  6.250000e-02  
-7.500000e-01  -2.000000e+00  -1.500000e+00  0  2277 0  3.885327e+00 4.961080e-01 4.043161e+00   -1.241938e-01 -2.967205e+00 -1.654944e-01 2.000000e-01  6.250000e-02  
-7.500000e-01  -1.750000e+00  -1.500000e+00  0  2285 0  7.627291e+00 3.071703e+00 9.458579e-01   8.732135e-01 -3.367975e+00 -3.013932e-01 2.000000e-01  6.250000e-02  
-5.000000e-01  -2.000000e+00  -1.500000e+00  0  2278 0  3.432352e+00 4.987355e-01 2.739271e+00   -3.150571e-01 -1.632333e+00 -3.036293e-01 2.000000e-01  6.250000e-02  
-5.000000e-01  -1.750000e+00  -1.500000e+00  0  2286 0  -5.747294e+00 5.225167e+00 -5.276875e+00   -1.450255e-01 -7.021364e-01 7.530200e-01 2.000000e-01  6.250000e-02  