VARIABLES="X", "Y", "Z", "Maximum Refinment Level", "Temp_ID", "Thread","Ex (corner node)","Ey (corner node)","Ez (corner node)","Bx (center node)","By (center node)","Bz (center node)", "Local Time Step" , "log10(Local Particle Weight)" 
ZONE N=4913, E=4096, DATAPACKING=POINT, ZONETYPE=FEBRICK
-2.000000e+00  -2.000000e+00  -2.000000e+00  0  1064 0  -2.181077e-05 -1.232117e-07 -2.627974e-05   -1.815379e-10 -7.250220e-10 -9.807191e-10 2.000000e-01  6.250000e-02  
-1.750000e+00  -2.000000e+00  -2.000000e+00  0  1065 0  1.018185e+01 6.920672e-08 5.250694e-06   6.717979e-09 -2.578252e-06 1.803945e-08 2.000000e-01  6.250000e-02  
-1.750000e+00  -1.750000e+00  -2.000000e+00  0  1076 0  -3.341239e-01 -3.341067e-01 -3.189057e-05   1.330227e-06 -1.310191e-06 -7.187754e-07 2.000000e-01  6.250000e-02  
-2.000000e+00  -1.750000e+00  -2.000000e+00  0  1075 0  4.560086e-06 1.018187e+01 5.170986e-06   2.547376e-06 4.725653e-10 -2.267393e-06 2.000000e-01  6.250000e-02  
-2.000000e+00  -2.000000e+00  -1.750000e+00  0  1185 0  4.771111e-06 -9.002794e-08 1.018185e+01   -1.551551e-08 2.291675e-06 1.539605e-08 2.000000e-01  6.250000e-02  
-1.750000e+00  -2.000000e+00  -1.750000e+00  0  1186 0  -3.341395e-01 1.310784e-08 -3.341422e-01   4.572369e-10 1.839396e-08 8.916456e-10 2.000000e-01  6.250000e-02  
-1.750000e+00  -1.750000e+00  -1.750000e+00  0  1197 0  1.643176e+00 1.643195e+00 1.643167e+00   6.450747e-07 -3.622966e-08 -6.113110e-07 2.000000e-01  6.250000e-02  
-2.000000e+00  -1.750000e+00  -1.750000e+00  0  1196 0  -2.765934e-05 -3.341141e-01 -3.341343e-01   7.278025e-07 1.163241e-06 -1.183283e-06 2.000000e-01  6.250000e-02  
-1.500000e+00  -2.000000e+00  -2.000000e+00  0  1066 0  -8.860868e+00 -1.120817e-07 -1.774932e-05   8.149941e-09 -2.002437e-06 -1.726507e-08 2.000000e-01  6.250000e-02  
-1.500000e+00  -1.750000e+00  -2.000000e+00  0  1077 0  1.519629e+01 -5.917858e+00 -2.899011e-06   -3.610435e-07 4.160019e-07 -1.647542e+00 2.000000e-01  6.250000e-02  
-1.500000e+00  -2.000000e+00  -1.750000e+00  0  1187 0  1.519630e+01 -7.476452e-08 -5.917862e+00   6.155540e-09 1.647543e+00 -1.403702e-08 2.000000e-01  6.250000e-02  
-1.500000e+00  -1.750000e+00  -1.750000e+00  0  1198 0  9.612015e-01 -1.626667e+01 -1.626667e+01   2.068557e-07 2.103217e+00 -2.103218e+00 2.000000e-01  6.250000e-02  
-1.250000e+00  -2.000000e+00  -2.000000e+00  0  2099 0  -2.694821e+01 -1.617691e-08 -4.506302e-06   2.177342e-09 -1.879764e-06 -2.636091e-09 2.000000e-01  6.250000e-02  
-1.250000e+00  -1.750000e+00  -2.000000e+00  0  2107 0  5.823757e+00 4.798409e-01 2.002973e-06   -4.727566e-07 -1.228656e-06 -1.121460e-01 2.000000e-01  6.250000e-02  
-1.250000e+00  -2.000000e+00  -1.750000e+00  0  2187 0  5.823758e+00 4.882669e-08 4.798374e-01   -6.418130e-10 1.121463e-01 -6.991531e-09 2.000000e-01  6.250000e-02  
-1.250000e+00  -1.750000e+00  -1.750000e+00  0  2195 0  3.261582e+00 -1.479632e+01 -1.479633e+01   -1.976568e-07 -7.847243e-01 7.847237e-01 2.000000e-01  6.250000e-02  
-1.000000e+00  -2.000000e+00  -2.000000e+00  0  2100 0  3.900643e+00 -3.609445e-08 -4.875559e-06   8.851020e-10 -2.813997e-07 5.617344e-09 2.000000e-01  6.250000e-02  
-1.000000e+00  -1.750000e+00  -2.000000e+00  0  2108 0  1.692471e+01 -1.503058e+01 -1.409363e-06   -2.514093e-07 -3.773323e-07 2.099067e+00 2.000000e-01  6.250000e-02  
-1.000000e+00  -2.000000e+00  -1.750000e+00  0  2188 0  1.692471e+01 -8.194444e-09 -1.503058e+01   -2.244165e-09 -2.099066e+00 6.133875e-09 2.000000e-01  6.250000e-02  
-1.000000e+00  -1.750000e+00  -1.750000e+00  0  2196 0  8.244594e+00 -4.281530e+00 -4.281531e+00   -1.527729e-07 -1.749940e+00 1.749940e+00 2.000000e-01  6.250000e-02  
-7.500000e-01  -2.000000e+00  -2.000000e+00  0  2101 0  -1.931975e+01 3.998598e-09 9.373152e-07   4.352564e-10 -1.351301e-07 1.037505e-09 2.000000e-01  6.250000e-02  
-7.500000e-01  -1.750000e+00  -2.000000e+00  0  2109 0  -3.975955e+00 -1.816197e+01 -9.159931e-07   -2.024091e-07 -9.669212e-08 1.615961e+00 2.000000e-01  6.250000e-02  
-7.500000e-01  -2.000000e+00  -1.750000e+00  0  2189 0  -3.975954e+00 -1.038551e-08 -1.816197e+01   2.275926e-09 -1.615961e+00 -1.673146e-09 2.000000e-01  6.250000e-02  
-7.500000e-01  -1.750000e+00  -1.750000e+00  0  2197 0  -1.818797e+01 -4.426285e+00 -4.426284e+00   -2.298807e-08 -1.001605e+00 1.001605e+00 2.000000e-01  6.250000e-02  
-5.000000e-01  -2.000000e+00  -2.000000e+00  0  2102 0  -1.470717e+01 3.435488e-09 3.028699e-06   1.511609e-10 -5.317737e-08 -2.110409e-09 2.000000e-01  6.250000e-02  
-5.000000e-01  -1.750000e+00  -2.000000e+00  0  2110 0  -4.206523e+00 -3.391850e+00 -2.322616e-06   1.215694e-08 2.228332e-08 8.041645e-01 2.000000e-01  6.250000e-02  
-5.000000e-01  -2.000000e+00  -1.750000e+00  0  2190 0  -4.206523e+00 -2.363365e-08 -3.391849e+00   1.525153e-09 -8.041644e-01 -3.049446e-09 2.000000e-01  6.250000e-02  
-5.000000e-01  -1.750000e+00  -1.750000e+00  0  2198 0  -2.350761e+00 -1.516257e+01 -1.516257e+01   4.304420e-08 -7.102941e-01 7.102940e-01 2.000000e-01  6.250000e-02  
-2.500000e-01  -2.000000e+00  -2.000000e+00  0  2103 0  3.891989e+00 -1.395019e-09 -5.319651e-07   -4.762690e-10 -1.421954e-07 -8.347213e-10 2.000000e-01  6.250000e-02  
-2.500000e-01  -1.750000e+00  -2.000000e+00  0  2111 0  -1.284934e-01 -1.724758e+01 6.126288e-07   4.185941e-08 -6.890528e-08 3.121928e-01 2.000000e-01  6.250000e-02  
-2.500000e-01  -2.000000e+00  -1.750000e+00  0  2191 0  -1.284926e-01 4.032197e-09 -1.724758e+01   9.479689e-11 -3.121930e-01 -8.386815e-10 2.000000e-01  6.250000e-02  
-2.500000e-01  -1.750000e+00  -1.750000e+00  0  2199 0  2.098704e+01 -2.329134e-01 -2.329143e-01   2.175629e-08 -3.877688e-01 3.877687e-01 2.000000e-01  6.250000e-02  
0.000000e+00  -2.000000e+00  -2.000000e+00  0  2104 0  9.757511e-07 -4.728912e-09 -1.094899e-06   -6.892036e-10 -3.512867e-10 5.138795e-10 2.000000e-01  6.250000e-02  
0.000000e+00  -1.750000e+00  -2.000000e+00  0  2112 0  2.614467e-06 -2.319740e+00 3.540097e-07   3.445754e-08 -1.339296e-10 -1.285031e-06 2.000000e-01  6.250000e-02  
0.000000e+00  -2.000000e+00  -1.750000e+00  0  2192 0  2.617333e-06 1.761466e-09 -2.319741e+00   -4.194955e-10 1.284724e-06 5.766818e-10 2.000000e-01  6.250000e-02  
0.000000e+00  -1.750000e+00  -1.750000e+00  0  2200 0  -5.694522e-06 -1.764734e+01 -1.764734e+01   -3.461544e-08 9.311532e-07 -9.313177e-07 2.000000e-01  6.250000e-02  
-1.750000e+00  -1.500000e+00  -2.000000e+00  0  1087 0  -5.917863e+00 1.519631e+01 -3.009909e-06   -4.266278e-07 3.791653e-07 1.647543e+00 2.000000e-01  6.250000e-02  
-2.000000e+00  -1.500000e+00  -2.000000e+00  0  1086 0  -1.522025e-05 -8.860853e+00 -1.774691e-05   1.972275e-06 6.747713e-10 -1.718556e-06 2.000000e-01  6.250000e-02  
-1.750000e+00  -1.500000e+00  -1.750000e+00  0  1208 0  -1.626667e+01 9.611869e-01 -1.626667e+01   -2.103219e+00 -9.437891e-08 2.103219e+00 2.000000e-01  6.250000e-02  
-2.000000e+00  -1.500000e+00  -1.750000e+00  0  1207 0  -2.530011e-06 1.519631e+01 -5.917861e+00   -1.647543e+00 -3.155320e-07 3.547630e-07 2.000000e-01  6.250000e-02  
-1.500000e+00  -1.500000e+00  -2.000000e+00  0  1088 0  2.292439e+00 2.292440e+00 -6.438654e-07   -1.363502e-06 1.373217e-06 -1.271301e-08 2.000000e-01  6.250000e-02  
-1.500000e+00  -1.500000e+00  -1.750000e+00  0  1209 0  5.873091e+00 5.873095e+00 -1.848965e+01   -2.169619e+00 2.169619e+00 -6.366677e-07 2.000000e-01  6.250000e-02  
-1.250000e+00  -1.500000e+00  -2.000000e+00  0  2115 0  -6.933285e+00 5.954008e+00 -3.017319e-06   1.972148e-07 -4.562633e-07 -8.810849e-01 2.000000e-01  6.250000e-02  
-1.250000e+00  -1.500000e+00  -1.750000e+00  0  2203 0  -2.896817e+00 1.006053e+01 -1.320086e+01   -1.745500e+00 -1.292825e+00 -1.304701e+00 2.000000e-01  6.250000e-02  
-1.000000e+00  -1.500000e+00  -2.000000e+00  0  2116 0  4.350979e+00 1.328762e+01 3.969562e-08   1.161383e-07 -4.570465e-07 9.878884e-01 2.000000e-01  6.250000e-02  
-1.000000e+00  -1.500000e+00  -1.750000e+00  0  2204 0  2.281431e-01 9.479585e+00 -4.056760e+00   -7.960006e-01 -1.283464e+00 -4.411403e-02 2.000000e-01  6.250000e-02  
-7.500000e-01  -1.500000e+00  -2.000000e+00  0  2117 0  -6.452035e+00 2.655317e+00 4.633896e-07   7.142077e-09 6.211968e-09 -1.766329e-01 2.000000e-01  6.250000e-02  
-7.500000e-01  -1.500000e+00  -1.750000e+00  0  2205 0  -1.451409e+01 2.148396e+01 -1.068424e+01   -1.745699e-01 -7.228575e-01 4.521981e-01 2.000000e-01  6.250000e-02  
-5.000000e-01  -1.500000e+00  -2.000000e+00  0  2118 0  -4.334522e+00 9.872002e+00 9.443838e-07   4.548580e-08 4.856994e-08 -9.444695e-01 2.000000e-01  6.250000e-02  
-5.000000e-01  -1.500000e+00  -1.750000e+00  0  2206 0  4.201678e+00 2.171561e+01 -1.287935e+01   -6.069299e-01 -7.124294e-01 -7.093269e-01 2.000000e-01  6.250000e-02  
-2.500000e-01  -1.500000e+00  -2.000000e+00  0  2119 0  1.030708e+00 7.617638e+00 -1.309763e-07   -1.765970e-08 1.377127e-08 -7.788983e-01 2.000000e-01  6.250000e-02  
-2.500000e-01  -1.500000e+00  -1.750000e+00  0  2207 0  -2.922482e+00 1.615728e+01 -4.686086e+00   -6.473490e-01 -4.559073e-01 -8.850535e-01 2.000000e-01  6.250000e-02  
0.000000e+00  -1.500000e+00  -2.000000e+00  0  2120 0  2.671027e-08 7.656199e+00 -2.998952e-07   -4.718940e-08 9.723732e-11 -4.047804e-07 2.000000e-01  6.250000e-02  
0.000000e+00  -1.500000e+00  -1.750000e+00  0  2208 0  8.965121e-07 2.251002e+01 -1.321126e+01   -5.486309e-01 2.754235e-07 -2.925945e-07 2.000000e-01  6.250000e-02  
-1.750000e+00  -1.250000e+00  -2.000000e+00  0  3012 0  4.798399e-01 5.823763e+00 2.016634e-06   1.224809e-06 4.711542e-07 1.121465e-01 2.000000e-01  6.250000e-02  
-2.000000e+00  -1.250000e+00  -2.000000e+00  0  3011 0  -3.864413e-06 -2.694823e+01 -4.513001e-06   1.874435e-06 -2.036835e-10 -1.611936e-06 2.000000e-01  6.250000e-02  
-1.750000e+00  -1.250000e+00  -1.750000e+00  0  3100 0  -1.479632e+01 3.261583e+00 -1.479632e+01   7.847232e-01 -1.176960e-08 -7.847231e-01 2.000000e-01  6.250000e-02  
-2.000000e+00  -1.250000e+00  -1.750000e+00  0  3099 0  1.736992e-06 5.823764e+00 4.798396e-01   -1.121464e-01 -3.921621e-07 -1.054417e-06 2.000000e-01  6.250000e-02  
-1.500000e+00  -1.250000e+00  -2.000000e+00  0  3013 0  5.954006e+00 -6.933286e+00 -3.007727e-06   4.535512e-07 -1.890915e-07 8.810853e-01 2.000000e-01  6.250000e-02  
-1.500000e+00  -1.250000e+00  -1.750000e+00  0  3101 0  1.006052e+01 -2.896821e+00 -1.320086e+01   1.292825e+00 1.745501e+00 1.304701e+00 2.000000e-01  6.250000e-02  
-1.250000e+00  -1.250000e+00  -2.000000e+00  0  3779 0  -2.077857e+00 -2.077858e+00 4.218046e-07   4.221511e-07 -4.186401e-07 -1.992371e-07 2.000000e-01  6.250000e-02  
-1.250000e+00  -1.250000e+00  -1.750000e+00  0  3843 0  -4.502654e+00 -4.502654e+00 -1.139270e+01   4.393737e-01 -4.393737e-01 -1.664119e-07 2.000000e-01  6.250000e-02  
-1.000000e+00  -1.250000e+00  -2.000000e+00  0  3780 0  7.005710e+00 -9.606349e-01 -3.018047e-07   2.258661e-07 -3.018037e-07 -1.799077e+00 2.000000e-01  6.250000e-02  
-1.000000e+00  -1.250000e+00  -1.750000e+00  0  3844 0  4.690440e+00 -5.145818e+00 -1.500599e+01   3.967724e-01 -8.007036e-01 -2.586570e+00 2.000000e-01  6.250000e-02  
-7.500000e-01  -1.250000e+00  -2.000000e+00  0  3781 0  -1.424087e+01 -4.669339e+00 -1.715004e-07   -1.483566e-08 4.927211e-08 -3.799827e-01 2.000000e-01  6.250000e-02  
-7.500000e-01  -1.250000e+00  -1.750000e+00  0  3845 0  -5.304712e+00 -6.351335e+00 -1.818639e+01   7.854593e-01 -9.634997e-01 -4.415547e-01 2.000000e-01  6.250000e-02  
-5.000000e-01  -1.250000e+00  -2.000000e+00  0  3782 0  -7.984500e+00 2.548491e+00 -6.115161e-08   1.547466e-08 -7.311731e-09 1.385645e-01 2.000000e-01  6.250000e-02  
-5.000000e-01  -1.250000e+00  -1.750000e+00  0  3846 0  1.512654e+00 -7.153268e+00 -1.525589e+01   8.534364e-01 -6.408684e-01 -1.303731e-01 2.000000e-01  6.250000e-02  
-2.500000e-01  -1.250000e+00  -2.000000e+00  0  3783 0  2.507287e+00 -1.568412e+00 -2.537134e-08   9.309909e-09 9.812892e-09 -1.612551e-01 2.000000e-01  6.250000e-02  
-2.500000e-01  -1.250000e+00  -1.750000e+00  0  3847 0  1.150865e+00 -5.978063e+00 -1.575092e+01   9.694951e-01 -3.776735e-01 -2.467391e-01 2.000000e-01  6.250000e-02  
0.000000e+00  -1.250000e+00  -2.000000e+00  0  3784 0  1.773777e-07 3.160910e+00 4.620666e-08   1.747175e-08 1.383735e-10 -5.070332e-08 2.000000e-01  6.250000e-02  
0.000000e+00  -1.250000e+00  -1.750000e+00  0  3848 0  -1.655493e-07 -8.835873e+00 -1.615309e+01   9.841827e-01 -6.432313e-09 -3.467846e-08 2.000000e-01  6.250000e-02  
-1.750000e+00  -1.000000e+00  -2.000000e+00  0  3023 0  -1.503058e+01 1.692471e+01 -1.459226e-06   3.740129e-07 2.521147e-07 -2.099067e+00 2.000000e-01  6.250000e-02  
-2.000000e+00  -1.000000e+00  -2.000000e+00  0  3022 0  -4.139587e-06 3.900634e+00 -4.890005e-06   2.843537e-07 7.807830e-12 -2.458962e-07 2.000000e-01  6.250000e-02  
-1.750000e+00  -1.000000e+00  -1.750000e+00  0  3111 0  -4.281531e+00 8.244598e+00 -4.281532e+00   1.749940e+00 4.011337e-08 -1.749940e+00 2.000000e-01  6.250000e-02  
-2.000000e+00  -1.000000e+00  -1.750000e+00  0  3110 0  -1.263584e-06 1.692471e+01 -1.503058e+01   2.099067e+00 -2.052960e-07 -3.198368e-07 2.000000e-01  6.250000e-02  
-1.500000e+00  -1.000000e+00  -2.000000e+00  0  3024 0  1.328762e+01 4.350979e+00 4.356848e-08   4.519641e-07 -1.140186e-07 -9.878880e-01 2.000000e-01  6.250000e-02  
-1.500000e+00  -1.000000e+00  -1.750000e+00  0  3112 0  9.479587e+00 2.281416e-01 -4.056758e+00   1.283464e+00 7.960003e-01 4.411446e-02 2.000000e-01  6.250000e-02  
-1.250000e+00  -1.000000e+00  -2.000000e+00  0  3787 0  -9.606353e-01 7.005711e+00 -3.066326e-07   3.004021e-07 -2.234535e-07 1.799077e+00 2.000000e-01  6.250000e-02  
-1.250000e+00  -1.000000e+00  -1.750000e+00  0  3851 0  -5.145818e+00 4.690440e+00 -1.500599e+01   8.007036e-01 -3.967724e-01 2.586570e+00 2.000000e-01  6.250000e-02  
-1.000000e+00  -1.000000e+00  -2.000000e+00  0  3788 0  -8.546413e+00 -8.546413e+00 -3.346459e-08   4.889481e-08 -4.812541e-08 -2.715792e-08 2.000000e-01  6.250000e-02  
-1.000000e+00  -1.000000e+00  -1.750000e+00  0  3852 0  8.213288e+00 8.213288e+00 -1.341381e+01   -7.613987e-02 7.613990e-02 -1.847676e-08 2.000000e-01  6.250000e-02  
-7.500000e-01  -1.000000e+00  -2.000000e+00  0  3789 0  9.947594e-01 5.717151e+00 -1.005412e-08   -2.797048e-08 -3.313819e-09 1.356886e+00 2.000000e-01  6.250000e-02  
-7.500000e-01  -1.000000e+00  -1.750000e+00  0  3853 0  -3.690884e+00 1.594263e+01 -1.254345e+01   -1.741673e-01 -4.094784e-01 4.844263e-01 2.000000e-01  6.250000e-02  
-5.000000e-01  -1.000000e+00  -2.000000e+00  0  3790 0  -5.537626e-01 5.550176e-01 5.257770e-09   4.691465e-09 -1.492116e-08 9.852890e-01 2.000000e-01  6.250000e-02  
-5.000000e-01  -1.000000e+00  -1.750000e+00  0  3854 0  -5.235299e+00 -5.782187e+00 -1.293825e+01   5.093095e-01 -2.483060e-01 4.902206e-01 2.000000e-01  6.250000e-02  
-2.500000e-01  -1.000000e+00  -2.000000e+00  0  3791 0  -9.101557e-01 -5.012751e-01 1.010235e-08   -4.759751e-10 -1.290390e-09 -3.335178e-01 2.000000e-01  6.250000e-02  
-2.500000e-01  -1.000000e+00  -1.750000e+00  0  3855 0  7.669680e+00 4.212797e+00 -9.745604e+00   8.237318e-01 -2.187331e-01 -4.660114e-01 2.000000e-01  6.250000e-02  
0.000000e+00  -1.000000e+00  -2.000000e+00  0  3792 0  3.951543e-09 -1.323285e+00 -9.721533e-09   -1.816659e-09 3.264866e-11 1.727673e-09 2.000000e-01  6.250000e-02  
0.000000e+00  -1.000000e+00  -1.750000e+00  0  3856 0  7.051940e-09 5.085487e+00 -1.368717e+01   8.680814e-01 8.895100e-09 7.468898e-10 2.000000e-01  6.250000e-02  
-1.750000e+00  -7.500000e-01  -2.000000e+00  0  3034 0  -1.816197e+01 -3.975952e+00 -8.459948e-07   1.002321e-07 2.028765e-07 -1.615960e+00 2.000000e-01  6.250000e-02  
-2.000000e+00  -7.500000e-01  -2.000000e+00  0  3033 0  7.834236e-07 -1.931975e+01 9.251397e-07   1.377428e-07 -2.111521e-10 -1.223007e-07 2.000000e-01  6.250000e-02  
-1.750000e+00  -7.500000e-01  -1.750000e+00  0  3122 0  -4.426273e+00 -1.818798e+01 -4.426272e+00   1.001605e+00 -9.078952e-09 -1.001605e+00 2.000000e-01  6.250000e-02  
-2.000000e+00  -7.500000e-01  -1.750000e+00  0  3121 0  -7.052521e-07 -3.975952e+00 -1.816197e+01   1.615960e+00 -1.713633e-07 -8.758995e-08 2.000000e-01  6.250000e-02  
-1.500000e+00  -7.500000e-01  -2.000000e+00  0  3035 0  2.655317e+00 -6.452036e+00 4.702906e-07   -4.110011e-09 -1.011336e-08 1.766325e-01 2.000000e-01  6.250000e-02  
-1.500000e+00  -7.500000e-01  -1.750000e+00  0  3123 0  2.148396e+01 -1.451409e+01 -1.068424e+01   7.228575e-01 1.745695e-01 -4.521986e-01 2.000000e-01  6.250000e-02  
-1.250000e+00  -7.500000e-01  -2.000000e+00  0  3795 0  -4.669339e+00 -1.424087e+01 -1.749503e-07   -4.850398e-08 1.434613e-08 3.799828e-01 2.000000e-01  6.250000e-02  
-1.250000e+00  -7.500000e-01  -1.750000e+00  0  3859 0  -6.351335e+00 -5.304712e+00 -1.818639e+01   9.634997e-01 -7.854594e-01 4.415547e-01 2.000000e-01  6.250000e-02  
-1.000000e+00  -7.500000e-01  -2.000000e+00  0  3796 0  5.717151e+00 9.947593e-01 -9.878747e-09   3.330394e-09 2.794254e-08 -1.356886e+00 2.000000e-01  6.250000e-02  
-1.000000e+00  -7.500000e-01  -1.750000e+00  0  3860 0  1.594263e+01 -3.690884e+00 -1.254345e+01   4.094784e-01 1.741673e-01 -4.844263e-01 2.000000e-01  6.250000e-02  
-7.500000e-01  -7.500000e-01  -2.000000e+00  0  3797 0  -5.957447e+00 -5.957447e+00 1.424181e-07   2.506839e-08 -2.530677e-08 -8.699799e-10 2.000000e-01  6.250000e-02  
-7.500000e-01  -7.500000e-01  -1.750000e+00  0  3861 0  -7.672627e+00 -7.672627e+00 -7.974152e+00   3.091737e-01 -3.091737e-01 2.419445e-09 2.000000e-01  6.250000e-02  
-5.000000e-01  -7.500000e-01  -2.000000e+00  0  3798 0  -2.780143e+00 -2.671052e+00 -3.920610e-08   8.539388e-09 -1.150876e-08 1.145208e-01 2.000000e-01  6.250000e-02  
-5.000000e-01  -7.500000e-01  -1.750000e+00  0  3862 0  1.201736e+00 -5.044143e+00 -1.732581e+01   6.010986e-01 -2.741936e-01 4.322300e-01 2.000000e-01  6.250000e-02  
-2.500000e-01  -7.500000e-01  -2.000000e+00  0  3799 0  2.977030e-01 9.095967e-01 -3.036352e-09   9.934576e-10 1.527684e-09 -2.453439e-01 2.000000e-01  6.250000e-02  
-2.500000e-01  -7.500000e-01  -1.750000e+00  0  3863 0  3.093458e+00 -4.126336e+00 -1.274833e+01   4.805394e-01 -1.341761e-01 -1.880237e-01 2.000000e-01  6.250000e-02  
0.000000e+00  -7.500000e-01  -2.000000e+00  0  3800 0  -4.168126e-09 -8.175090e-03 7.749365e-10   1.645071e-09 1.698222e-11 2.240237e-09 2.000000e-01  6.250000e-02  
0.000000e+00  -7.500000e-01  -1.750000e+00  0  3864 0  -8.242143e-09 -9.754642e+00 -1.765546e+01   4.268062e-01 1.951914e-09 1.841858e-09 2.000000e-01  6.250000e-02  
-1.750000e+00  -5.000000e-01  -2.000000e+00  0  3045 0  -3.391846e+00 -4.206522e+00 -2.360038e-06   -2.038955e-08 -9.470307e-09 -8.041650e-01 2.000000e-01  6.250000e-02  
-2.000000e+00  -5.000000e-01  -2.000000e+00  0  3044 0  2.554959e-06 -1.470719e+01 2.991802e-06   4.985439e-08 -5.268417e-10 -3.580860e-08 2.000000e-01  6.250000e-02  
-1.750000e+00  -5.000000e-01  -1.750000e+00  0  3133 0  -1.516257e+01 -2.350778e+00 -1.516257e+01   7.102945e-01 -1.195701e-08 -7.102945e-01 2.000000e-01  6.250000e-02  
-2.000000e+00  -5.000000e-01  -1.750000e+00  0  3132 0  -2.037747e-06 -4.206522e+00 -3.391846e+00   8.041650e-01 6.417145e-09 2.145984e-08 2.000000e-01  6.250000e-02  
-1.500000e+00  -5.000000e-01  -2.000000e+00  0  3046 0  9.872003e+00 -4.334523e+00 9.451602e-07   -4.613037e-08 -4.677522e-08 9.444685e-01 2.000000e-01  6.250000e-02  
-1.500000e+00  -5.000000e-01  -1.750000e+00  0  3134 0  2.171561e+01 4.201684e+00 -1.287935e+01   7.124296e-01 6.069298e-01 7.093259e-01 2.000000e-01  6.250000e-02  
-1.250000e+00  -5.000000e-01  -2.000000e+00  0  3803 0  2.548491e+00 -7.984500e+00 -6.056991e-08   7.391969e-09 -1.587314e-08 -1.385643e-01 2.000000e-01  6.250000e-02  
-1.250000e+00  -5.000000e-01  -1.750000e+00  0  3867 0  -7.153269e+00 1.512653e+00 -1.525589e+01   6.408684e-01 -8.534364e-01 1.303734e-01 2.000000e-01  6.250000e-02  
-1.000000e+00  -5.000000e-01  -2.000000e+00  0  3804 0  5.550178e-01 -5.537625e-01 4.560832e-09   1.490962e-08 -4.713477e-09 -9.852890e-01 2.000000e-01  6.250000e-02  
-1.000000e+00  -5.000000e-01  -1.750000e+00  0  3868 0  -5.782187e+00 -5.235299e+00 -1.293825e+01   2.483060e-01 -5.093095e-01 -4.902206e-01 2.000000e-01  6.250000e-02  
-7.500000e-01  -5.000000e-01  -2.000000e+00  0  3805 0  -2.671052e+00 -2.780143e+00 -3.812804e-08   1.140607e-08 -8.721173e-09 -1.145208e-01 2.000000e-01  6.250000e-02  
-7.500000e-01  -5.000000e-01  -1.750000e+00  0  3869 0  -5.044143e+00 1.201736e+00 -1.732581e+01   2.741936e-01 -6.010986e-01 -4.322300e-01 2.000000e-01  6.250000e-02  
-5.000000e-01  -5.000000e-01  -2.000000e+00  0  3806 0  -1.626845e+00 -1.626845e+00 1.590607e-08   2.663461e-09 -2.704589e-09 1.139851e-09 2.000000e-01  6.250000e-02  
-5.000000e-01  -5.000000e-01  -1.750000e+00  0  3870 0  2.412929e+00 2.412929e+00 -2.248339e+01   3.651567e-01 -3.651567e-01 1.118651e-09 2.000000e-01  6.250000e-02  
-2.500000e-01  -5.000000e-01  -2.000000e+00  0  3807 0  -1.628258e-01 -2.409680e+00 1.262700e-09   -1.378335e-09 1.109374e-09 -1.715266e-01 2.000000e-01  6.250000e-02  
-2.500000e-01  -5.000000e-01  -1.750000e+00  0  3871 0  2.849540e+00 -5.951791e+00 -1.602045e+01   2.006606e-01 -9.669615e-02 -2.080175e-01 2.000000e-01  6.250000e-02  
0.000000e+00  -5.000000e-01  -2.000000e+00  0  3808 0  2.507009e-09 -3.541409e+00 2.174058e-09   4.795451e-10 2.691902e-12 -3.412097e-10 2.000000e-01  6.250000e-02  
0.000000e+00  -5.000000e-01  -1.750000e+00  0  3872 0  8.546949e-10 4.176404e+00 -2.027416e+01   1.960847e-01 2.951691e-11 -1.159804e-10 2.000000e-01  6.250000e-02  
-1.750000e+00  -2.500000e-01  -2.000000e+00  0  3056 0  -1.724758e+01 -1.284974e-01 6.120738e-07   6.701308e-08 -3.972340e-08 -3.121942e-01 2.000000e-01  6.250000e-02  
-2.000000e+00  -2.500000e-01  -2.000000e+00  0  3055 0  -4.582704e-07 3.891962e+00 -5.338150e-07   1.397167e-07 -3.344014e-10 -1.179649e-07 2.000000e-01  6.250000e-02  
-1.750000e+00  -2.500000e-01  -1.750000e+00  0  3144 0  -2.329103e-01 2.098704e+01 -2.329104e-01   3.877695e-01 -3.626236e-09 -3.877695e-01 2.000000e-01  6.250000e-02  
-2.000000e+00  -2.500000e-01  -1.750000e+00  0  3143 0  5.275286e-07 -1.284973e-01 -1.724758e+01   3.121942e-01 3.298814e-08 -5.612851e-08 2.000000e-01  6.250000e-02  
-1.500000e+00  -2.500000e-01  -2.000000e+00  0  3057 0  7.617638e+00 1.030706e+00 -1.270613e-07   -1.429635e-08 1.860341e-08 7.788974e-01 2.000000e-01  6.250000e-02  
-1.500000e+00  -2.500000e-01  -1.750000e+00  0  3145 0  1.615728e+01 -2.922481e+00 -4.686087e+00   4.559075e-01 6.473489e-01 8.850528e-01 2.000000e-01  6.250000e-02  
-1.250000e+00  -2.500000e-01  -2.000000e+00  0  3811 0  -1.568412e+00 2.507287e+00 -2.624214e-08   -1.002843e-08 -9.398358e-09 1.612551e-01 2.000000e-01  6.250000e-02  
-1.250000e+00  -2.500000e-01  -1.750000e+00  0  3875 0  -5.978063e+00 1.150865e+00 -1.575092e+01   3.776736e-01 -9.694950e-01 2.467392e-01 2.000000e-01  6.250000e-02  
-1.000000e+00  -2.500000e-01  -2.000000e+00  0  3812 0  -5.012751e-01 -9.101558e-01 9.880907e-09   1.189836e-09 4.945960e-10 3.335177e-01 2.000000e-01  6.250000e-02  
-1.000000e+00  -2.500000e-01  -1.750000e+00  0  3876 0  4.212797e+00 7.669680e+00 -9.745604e+00   2.187331e-01 -8.237318e-01 4.660113e-01 2.000000e-01  6.250000e-02  
-7.500000e-01  -2.500000e-01  -2.000000e+00  0  3813 0  9.095967e-01 2.977030e-01 -2.855821e-09   -1.571750e-09 -1.174672e-09 2.453438e-01 2.000000e-01  6.250000e-02  
-7.500000e-01  -2.500000e-01  -1.750000e+00  0  3877 0  -4.126336e+00 3.093458e+00 -1.274833e+01   1.341761e-01 -4.805394e-01 1.880237e-01 2.000000e-01  6.250000e-02  
-5.000000e-01  -2.500000e-01  -2.000000e+00  0  3814 0  -2.409680e+00 -1.628258e-01 3.782761e-10   -1.095303e-09 1.396743e-09 1.715266e-01 2.000000e-01  6.250000e-02  
-5.000000e-01  -2.500000e-01  -1.750000e+00  0  3878 0  -5.951791e+00 2.849540e+00 -1.602045e+01   9.669615e-02 -2.006606e-01 2.080175e-01 2.000000e-01  6.250000e-02  
-2.500000e-01  -2.500000e-01  -2.000000e+00  0  3815 0  4.292396e-01 4.292396e-01 -1.318270e-09   -6.345355e-11 1.446006e-10 -1.155187e-10 2.000000e-01  6.250000e-02  
-2.500000e-01  -2.500000e-01  -1.750000e+00  0  3879 0  2.855401e+00 2.855401e+00 -1.437930e+01   1.198192e-01 -1.198192e-01 -3.165307e-11 2.000000e-01  6.250000e-02  
0.000000e+00  -2.500000e-01  -2.000000e+00  0  3816 0  -7.175032e-10 -2.225702e-01 1.393567e-09   9.029086e-11 5.281242e-11 -9.370731e-11 2.000000e-01  6.250000e-02  
0.000000e+00  -2.500000e-01  -1.750000e+00  0  3880 0  3.096189e-10 3.506997e+00 -1.579769e+01   1.840091e-01 -1.449084e-10 -1.117924e-10 2.000000e-01  6.250000e-02  
-1.750000e+00  0.000000e+00  -2.000000e+00  0  3067 0  -2.319742e+00 2.621231e-09 3.517963e-07   5.486465e-10 -3.404892e-08 -2.361508e-09 2.000000e-01  6.250000e-02  
-2.000000e+00  0.000000e+00  -2.000000e+00  0  3066 0  -9.462307e-07 -2.918236e-08 -1.103004e-06   1.174106e-09 7.315250e-11 -9.851853e-11 2.000000e-01  6.250000e-02  
-1.750000e+00  0.000000e+00  -1.750000e+00  0  3155 0  -1.764734e+01 -2.403253e-08 -1.764734e+01   5.918574e-10 5.549063e-09 -4.692957e-10 2.000000e-01  6.250000e-02  
-2.000000e+00  0.000000e+00  -1.750000e+00  0  3154 0  2.962578e-07 5.647984e-09 -2.319742e+00   2.611067e-09 2.895582e-08 1.494307e-10 2.000000e-01  6.250000e-02  
-1.500000e+00  0.000000e+00  -2.000000e+00  0  3068 0  7.656199e+00 -3.355955e-09 -2.996778e-07   3.436540e-10 4.761501e-08 1.248728e-09 2.000000e-01  6.250000e-02  
-1.500000e+00  0.000000e+00  -1.750000e+00  0  3156 0  2.251002e+01 5.877509e-09 -1.321126e+01   -2.131132e-10 5.486309e-01 9.064768e-10 2.000000e-01  6.250000e-02  
-1.250000e+00  0.000000e+00  -2.000000e+00  0  3819 0  3.160910e+00 4.606772e-10 4.787312e-08   1.784705e-10 -1.711030e-08 -4.246933e-10 2.000000e-01  6.250000e-02  
-1.250000e+00  0.000000e+00  -1.750000e+00  0  3883 0  -8.835873e+00 -1.329386e-09 -1.615309e+01   2.908315e-10 -9.841826e-01 -1.571602e-10 2.000000e-01  6.250000e-02  
-1.000000e+00  0.000000e+00  -2.000000e+00  0  3820 0  -1.323285e+00 1.376991e-10 -1.118351e-08   8.342105e-12 1.832307e-09 -1.070673e-10 2.000000e-01  6.250000e-02  
-1.000000e+00  0.000000e+00  -1.750000e+00  0  3884 0  5.085487e+00 2.991749e-11 -1.368717e+01   4.126238e-11 -8.680814e-01 -1.047176e-10 2.000000e-01  6.250000e-02  
-7.500000e-01  0.000000e+00  -2.000000e+00  0  3821 0  -8.175089e-03 4.277481e-10 2.291897e-09   2.855111e-11 -1.796035e-09 -4.187888e-11 2.000000e-01  6.250000e-02  
-7.500000e-01  0.000000e+00  -1.750000e+00  0  3885 0  -9.754642e+00 -3.110670e-10 -1.765546e+01   7.945773e-11 -4.268062e-01 -9.463942e-11 2.000000e-01  6.250000e-02  
-5.000000e-01  0.000000e+00  -2.000000e+00  0  3822 0  -3.541409e+00 -5.312007e-10 2.122692e-09   1.190117e-11 -4.310493e-10 1.461226e-10 2.000000e-01  6.250000e-02  
-5.000000e-01  0.000000e+00  -1.750000e+00  0  3886 0  4.176404e+00 6.848873e-11 -2.027416e+01   8.478440e-12 -1.960847e-01 1.229361e-10 2.000000e-01  6.250000e-02  
-2.500000e-01  0.000000e+00  -2.000000e+00  0  3823 0  -2.225702e-01 5.056874e-10 1.500664e-09   5.345610e-11 -2.530126e-11 1.770460e-10 2.000000e-01  6.250000e-02  
-2.500000e-01  0.000000e+00  -1.750000e+00  0  3887 0  3.506997e+00 -2.790520e-10 -1.579769e+01   -6.930192e-12 -1.840091e-01 1.259561e-10 2.000000e-01  6.250000e-02  
0.000000e+00  0.000000e+00  -2.000000e+00  0  3824 0  8.060704e-10 -1.391522e-10 2.661109e-09   3.208614e-11 1.230517e-10 -7.386830e-12 2.000000e-01  6.250000e-02  
0.000000e+00  0.000000e+00  -1.750000e+00  0  3888 0  -3.375246e-10 -1.016042e-10 -1.919194e+01   8.606855e-12 -5.755522e-11 5.451612e-12 2.000000e-01  6.250000e-02  
-2.000000e+00  -2.000000e+00  -1.500000e+00  0  1306 0  -1.525349e-05 -1.095556e-07 -8.860891e+00   -5.797036e-09 1.721403e-06 1.951834e-08 2.000000e-01  6.250000e-02  
-1.750000e+00  -2.000000e+00  -1.500000e+00  0  1307 0  -5.917861e+00 -5.122926e-08 1.519629e+01   7.126130e-09 -1.647543e+00 3.276898e-09 2.000000e-01  6.250000e-02  
-1.750000e+00  -1.750000e+00  -1.500000e+00  0  1318 0  -1.626667e+01 -1.626667e+01 9.612056e-01   2.103218e+00 -2.103217e+00 -1.106285e-07 2.000000e-01  6.250000e-02  
-2.000000e+00  -1.750000e+00  -1.500000e+00  0  1317 0  -2.465599e-06 -5.917855e+00 1.519628e+01   1.647542e+00 -3.519760e-07 3.089758e-07 2.000000e-01  6.250000e-02  
-1.500000e+00  -2.000000e+00  -1.500000e+00  0  1308 0  2.292437e+00 4.238105e-09 2.292437e+00   1.254588e-08 1.168437e-07 -1.028118e-08 2.000000e-01  6.250000e-02  
-1.500000e+00  -1.750000e+00  -1.500000e+00  0  1319 0  5.873101e+00 -1.848965e+01 5.873099e+00   2.169619e+00 -1.396404e-07 -2.169619e+00 2.000000e-01  6.250000e-02  
-1.250000e+00  -2.000000e+00  -1.500000e+00  0  2275 0  -6.933286e+00 -3.643045e-08 5.954006e+00   2.844297e-09 8.810853e-01 -3.579321e-09 2.000000e-01  6.250000e-02  
-1.250000e+00  -1.750000e+00  -1.500000e+00  0  2283 0  -2.896823e+00 -1.320086e+01 1.006052e+01   1.745500e+00 1.304701e+00 1.292825e+00 2.000000e-01  6.250000e-02  
-1.000000e+00  -2.000000e+00  -1.500000e+00  0  2276 0  4.350979e+00 5.606892e-09 1.328762e+01   -1.480863e-09 -9.878879e-01 1.988848e-09 2.000000e-01  6.250000e-02  
-1.000000e+00  -1.750000e+00  -1.500000e+00  0  2284 0  2.281417e-01 -4.056758e+00 9.479587e+00   7.960003e-01 4.411472e-02 1.283464e+00 2.000000e-01  6.250000e-02  
-7.500000e-01  -2.000000e+00  -1.500000e+00  0  2277 0  -6.452036e+00 2.026755e-09 2.655318e+00   1.039489e-10 1.766331e-01 -2.094306e-09 2.000000e-01  6.250000e-02  
-7.500000e-01  -1.750000e+00  -1.500000e+00  0  2285 0  -1.451409e+01 -1.068424e+01 2.148396e+01   1.745699e-01 -4.521981e-01 7.228576e-01 2.000000e-01  6.250000e-02  
-5.000000e-01  -2.000000e+00  -1.500000e+00  0  2278 0  -4.334522e+00 6.590941e-09 9.872003e+00   -8.395229e-11 9.444695e-01 -2.189020e-09 2.000000e-01  6.250000e-02  
-5.000000e-01  -1.750000e+00  -1.500000e+00  0  2286 0  4.201680e+00 -1.287935e+01 2.171561e+01   6.069300e-01 7.093269e-01 7.124294e-01 2.000000e-01  6.250000e-02  