VARIABLES="X", "Y", "Z", "Maximum Refinment Level", "Temp_ID", "Thread","Ex (corner node)","Ey (corner node)","Ez (corner node)","Bx (center node)","By (center node)","Bz (center node)", "Local Time Step" , "log10(Local Particle Weight)" 
ZONE N=4913, E=4096, DATAPACKING=POINT, ZONETYPE=FEBRICK
-2.000000e+00  -2.000000e+00  -2.000000e+00  0  1064 0  1.056025e-04 -6.670144e-05 7.887372e-05   -1.398160e-07 1.296467e-07 -3.825489e-06 2.000000e-01  6.250000e-02  
-1.750000e+00  -2.000000e+00  -2.000000e+00  0  1065 0  5.352026e-02 -7.090637e-01 -5.106454e-05   1.545035e-07 -5.772116e-06 4.755931e-01 2.000000e-01  6.250000e-02  
-1.750000e+00  -1.750000e+00  -2.000000e+00  0  1076 0  -3.535193e+00 -3.535155e+00 4.523670e-05   2.225196e-06 -2.254472e-06 -1.865771e-05 2.000000e-01  6.250000e-02  
-2.000000e+00  -1.750000e+00  -2.000000e+00  0  1075 0  -7.090999e-01 5.322585e-02 -5.100739e-05   5.757016e-06 -1.512013e-07 -4.756342e-01 2.000000e-01  6.250000e-02  
-2.000000e+00  -2.000000e+00  -1.750000e+00  0  1185 0  -7.118948e-05 1.224161e-06 4.139185e+00   9.130900e-06 3.268220e-05 -1.577130e-06 2.000000e-01  6.250000e-02  
-1.750000e+00  -2.000000e+00  -1.750000e+00  0  1186 0  -5.328593e+00 -3.471839e+00 -2.654220e-01   -4.450786e-01 9.061779e-02 -4.792763e-02 2.000000e-01  6.250000e-02  
-1.750000e+00  -1.750000e+00  -1.750000e+00  0  1197 0  -5.398306e+00 -5.398263e+00 -4.876145e+00   -4.183624e-01 4.183832e-01 -1.253778e-05 2.000000e-01  6.250000e-02  
-2.000000e+00  -1.750000e+00  -1.750000e+00  0  1196 0  -3.471818e+00 -5.328596e+00 -2.654723e-01   -9.058213e-02 4.451116e-01 4.790191e-02 2.000000e-01  6.250000e-02  
-1.500000e+00  -2.000000e+00  -2.000000e+00  0  1066 0  9.498089e+00 1.021860e+00 2.234975e-05   2.036296e-06 -2.827686e-06 2.529720e-01 2.000000e-01  6.250000e-02  
-1.500000e+00  -1.750000e+00  -2.000000e+00  0  1077 0  4.819603e+00 2.345689e+00 -3.641356e-05   -8.049669e-06 2.947235e-06 -8.552333e-01 2.000000e-01  6.250000e-02  
-1.500000e+00  -2.000000e+00  -1.750000e+00  0  1187 0  4.612082e+00 2.799894e-01 3.264930e+00   -3.291593e-01 1.810825e+00 -1.071049e-01 2.000000e-01  6.250000e-02  
-1.500000e+00  -1.750000e+00  -1.750000e+00  0  1198 0  4.488069e+00 3.298245e+00 2.345945e+00   -2.718815e-01 2.127206e+00 -8.781891e-01 2.000000e-01  6.250000e-02  
-1.250000e+00  -2.000000e+00  -2.000000e+00  0  2099 0  9.399469e+00 2.031390e+00 -1.861527e-05   -1.126878e-06 6.338093e-06 3.173514e-01 2.000000e-01  6.250000e-02  
-1.250000e+00  -1.750000e+00  -2.000000e+00  0  2107 0  -4.924100e+00 -3.287136e+00 1.830462e-05   -8.837958e-06 1.994585e-06 -5.306603e-02 2.000000e-01  6.250000e-02  
-1.250000e+00  -2.000000e+00  -1.750000e+00  0  2187 0  -3.446461e+00 -7.988194e-03 -2.172495e+00   -4.895494e-01 4.070188e-01 2.196754e-01 2.000000e-01  6.250000e-02  
-1.250000e+00  -1.750000e+00  -1.750000e+00  0  2195 0  -1.031945e+01 4.639592e+00 3.769949e+00   2.614471e-02 6.672901e-01 -2.866432e-01 2.000000e-01  6.250000e-02  
-1.000000e+00  -2.000000e+00  -2.000000e+00  0  2100 0  7.181473e+00 3.076463e-01 -4.884853e-05   -9.719256e-07 -1.799199e-06 1.312608e-01 2.000000e-01  6.250000e-02  
-1.000000e+00  -1.750000e+00  -2.000000e+00  0  2108 0  -9.402810e-01 6.476519e+00 1.963515e-05   -1.550741e-06 2.551119e-06 -2.885628e-01 2.000000e-01  6.250000e-02  
-1.000000e+00  -2.000000e+00  -1.750000e+00  0  2188 0  -4.128846e+00 -1.127163e+00 4.356657e+00   -3.349698e-01 -3.789746e-02 1.217076e-02 2.000000e-01  6.250000e-02  
-1.000000e+00  -1.750000e+00  -1.750000e+00  0  2196 0  -3.766583e-01 3.060425e+00 2.441348e+00   4.157877e-01 8.828992e-02 -7.689085e-01 2.000000e-01  6.250000e-02  
-7.500000e-01  -2.000000e+00  -2.000000e+00  0  2101 0  -7.802675e+00 2.038238e+00 3.691881e-05   1.882785e-06 4.146971e-06 -2.250730e-02 2.000000e-01  6.250000e-02  
-7.500000e-01  -1.750000e+00  -2.000000e+00  0  2109 0  6.744699e+00 1.075077e+01 2.376572e-05   -2.659168e-06 8.966945e-06 -1.343115e-01 2.000000e-01  6.250000e-02  
-7.500000e-01  -2.000000e+00  -1.750000e+00  0  2189 0  7.750952e+00 -1.219396e+00 9.708187e+00   1.060185e-01 1.183613e-01 -2.735115e-01 2.000000e-01  6.250000e-02  
-7.500000e-01  -1.750000e+00  -1.750000e+00  0  2197 0  -7.606135e+00 -2.203659e+00 -2.951430e+00   6.426810e-01 4.034017e-01 -3.629921e-01 2.000000e-01  6.250000e-02  
-5.000000e-01  -2.000000e+00  -2.000000e+00  0  2102 0  -2.764521e-01 -6.317474e+00 8.691084e-06   -3.111845e-07 6.992502e-06 4.876328e-01 2.000000e-01  6.250000e-02  
-5.000000e-01  -1.750000e+00  -2.000000e+00  0  2110 0  2.104847e+00 -1.223011e+00 -2.507133e-05   -4.345108e-06 1.510679e-05 1.261600e+00 2.000000e-01  6.250000e-02  
-5.000000e-01  -2.000000e+00  -1.750000e+00  0  2190 0  -1.193046e+00 1.884454e+00 3.979972e+00   4.157776e-01 -7.529357e-01 2.315740e-01 2.000000e-01  6.250000e-02  
-5.000000e-01  -1.750000e+00  -1.750000e+00  0  2198 0  2.111182e+00 -2.324237e+00 -3.907987e+00   5.509400e-01 -1.112164e-01 8.525566e-01 2.000000e-01  6.250000e-02  
-2.500000e-01  -2.000000e+00  -2.000000e+00  0  2103 0  8.145069e+00 1.235721e+00 -7.805040e-06   -1.317257e-06 3.793865e-06 -2.308919e-01 2.000000e-01  6.250000e-02  
-2.500000e-01  -1.750000e+00  -2.000000e+00  0  2111 0  -4.561605e+00 2.109444e+00 -3.940948e-06   -1.406212e-06 5.795545e-06 -1.936523e-02 2.000000e-01  6.250000e-02  
-2.500000e-01  -2.000000e+00  -1.750000e+00  0  2191 0  -3.573944e+00 1.277755e+00 8.129632e-01   2.653966e-01 1.624867e-01 2.114268e-03 2.000000e-01  6.250000e-02  
-2.500000e-01  -1.750000e+00  -1.750000e+00  0  2199 0  2.092968e+00 -4.761494e+00 -6.462679e+00   3.148420e-01 -6.654047e-01 9.853698e-01 2.000000e-01  6.250000e-02  
0.000000e+00  -2.000000e+00  -2.000000e+00  0  2104 0  -1.343637e-04 9.378809e-05 1.119337e-06   -8.002538e-09 1.258565e-09 -6.646388e-01 2.000000e-01  6.250000e-02  
0.000000e+00  -1.750000e+00  -2.000000e+00  0  2112 0  9.080521e-01 -4.245104e+00 -1.849216e-05   1.509614e-06 -1.794122e-06 -6.280789e-01 2.000000e-01  6.250000e-02  
0.000000e+00  -2.000000e+00  -1.750000e+00  0  2192 0  1.533732e-05 1.606809e-06 -4.960297e+00   1.919796e-05 -1.110496e-05 -4.725863e-01 2.000000e-01  6.250000e-02  
0.000000e+00  -1.750000e+00  -1.750000e+00  0  2200 0  -1.860169e+00 4.366544e+00 4.950564e+00   -6.214986e-02 -2.369150e-01 -3.507124e-01 2.000000e-01  6.250000e-02  
-1.750000e+00  -1.500000e+00  -2.000000e+00  0  1087 0  2.345715e+00 4.819633e+00 -3.640943e-05   -2.965027e-06 8.043058e-06 8.552106e-01 2.000000e-01  6.250000e-02  
-2.000000e+00  -1.500000e+00  -2.000000e+00  0  1086 0  1.021906e+00 9.498181e+00 2.239190e-05   2.839619e-06 -2.033957e-06 -2.530140e-01 2.000000e-01  6.250000e-02  
-1.750000e+00  -1.500000e+00  -1.750000e+00  0  1208 0  3.298261e+00 4.488118e+00 2.345956e+00   -2.127204e+00 2.718911e-01 8.781733e-01 2.000000e-01  6.250000e-02  
-2.000000e+00  -1.500000e+00  -1.750000e+00  0  1207 0  2.800191e-01 4.612136e+00 3.264911e+00   -1.810811e+00 3.291700e-01 1.070888e-01 2.000000e-01  6.250000e-02  
-1.500000e+00  -1.500000e+00  -2.000000e+00  0  1088 0  -6.674409e+00 -6.674380e+00 -5.946728e-05   -1.562951e-05 1.561810e-05 8.668004e-07 2.000000e-01  6.250000e-02  
-1.500000e+00  -1.500000e+00  -1.750000e+00  0  1209 0  -4.015377e+00 -4.015385e+00 2.018282e-01   -5.666244e-01 5.666256e-01 -3.910921e-07 2.000000e-01  6.250000e-02  
-1.250000e+00  -1.500000e+00  -2.000000e+00  0  2115 0  -1.261420e+00 2.168003e+00 -5.969560e-06   -9.503678e-07 4.222844e-06 -5.116366e-01 2.000000e-01  6.250000e-02  
-1.250000e+00  -1.500000e+00  -1.750000e+00  0  2203 0  3.471156e+00 -3.805188e+00 2.466122e+00   1.171222e+00 5.960454e-01 -6.591784e-01 2.000000e-01  6.250000e-02  
-1.000000e+00  -1.500000e+00  -2.000000e+00  0  2116 0  4.476533e+00 1.988383e+00 -3.645403e-06   8.322457e-06 4.537694e-06 7.651605e-01 2.000000e-01  6.250000e-02  
-1.000000e+00  -1.500000e+00  -1.750000e+00  0  2204 0  -2.314367e+00 -6.585778e+00 -8.250771e+00   5.214633e-01 5.087311e-01 1.537523e+00 2.000000e-01  6.250000e-02  
-7.500000e-01  -1.500000e+00  -2.000000e+00  0  2117 0  4.580357e+00 6.696493e+00 -1.360407e-05   2.294789e-06 5.790681e-06 2.544832e+00 2.000000e-01  6.250000e-02  
-7.500000e-01  -1.500000e+00  -1.750000e+00  0  2205 0  6.604871e+00 1.916161e+00 4.162470e+00   -8.699618e-01 9.200794e-01 2.708917e+00 2.000000e-01  6.250000e-02  
-5.000000e-01  -1.500000e+00  -2.000000e+00  0  2118 0  5.978337e+00 1.555205e+00 -3.305931e-05   -2.267421e-06 1.090015e-05 1.171781e+00 2.000000e-01  6.250000e-02  
-5.000000e-01  -1.500000e+00  -1.750000e+00  0  2206 0  -1.770262e+00 -6.347508e+00 5.997440e+00   -1.630147e-01 -2.765451e-01 6.788788e-01 2.000000e-01  6.250000e-02  
-2.500000e-01  -1.500000e+00  -2.000000e+00  0  2119 0  8.378336e+00 -1.614768e+00 -5.364413e-06   -1.276778e-07 2.623928e-06 1.381780e-02 2.000000e-01  6.250000e-02  
-2.500000e-01  -1.500000e+00  -1.750000e+00  0  2207 0  3.808459e+00 -4.880853e+00 5.285897e+00   2.259806e-01 -8.424545e-01 1.005118e-01 2.000000e-01  6.250000e-02  
0.000000e+00  -1.500000e+00  -2.000000e+00  0  2120 0  8.686811e-01 8.141242e-02 3.225646e-06   9.281612e-07 -2.370077e-06 -3.965136e-01 2.000000e-01  6.250000e-02  
0.000000e+00  -1.500000e+00  -1.750000e+00  0  2208 0  -1.935113e+00 -1.983442e-01 3.562976e+00   -7.643526e-01 -1.149600e-01 -3.428896e-01 2.000000e-01  6.250000e-02  
-1.750000e+00  -1.250000e+00  -2.000000e+00  0  3012 0  -3.287162e+00 -4.924058e+00 1.820662e-05   -1.996267e-06 8.832167e-06 5.304851e-02 2.000000e-01  6.250000e-02  
-2.000000e+00  -1.250000e+00  -2.000000e+00  0  3011 0  2.031235e+00 9.399344e+00 -1.864744e-05   -6.319742e-06 1.122361e-06 -3.173470e-01 2.000000e-01  6.250000e-02  
-1.750000e+00  -1.250000e+00  -1.750000e+00  0  3100 0  4.639581e+00 -1.031948e+01 3.769924e+00   -6.672841e-01 -2.614341e-02 2.866315e-01 2.000000e-01  6.250000e-02  
-2.000000e+00  -1.250000e+00  -1.750000e+00  0  3099 0  -7.984013e-03 -3.446432e+00 -2.172521e+00   -4.070015e-01 4.895486e-01 -2.196668e-01 2.000000e-01  6.250000e-02  
-1.500000e+00  -1.250000e+00  -2.000000e+00  0  3013 0  2.168004e+00 -1.261423e+00 -5.911577e-06   -4.212155e-06 9.511764e-07 5.116334e-01 2.000000e-01  6.250000e-02  
-1.500000e+00  -1.250000e+00  -1.750000e+00  0  3101 0  -3.805194e+00 3.471159e+00 2.466115e+00   -5.960432e-01 -1.171220e+00 6.591774e-01 2.000000e-01  6.250000e-02  
-1.250000e+00  -1.250000e+00  -2.000000e+00  0  3779 0  -1.427703e+00 -1.427700e+00 -9.841415e-06   1.557381e-06 -1.546842e-06 -1.111294e-06 2.000000e-01  6.250000e-02  
-1.250000e+00  -1.250000e+00  -1.750000e+00  0  3843 0  -6.130478e+00 -6.130470e+00 -8.296608e+00   1.025952e-01 -1.025961e-01 8.687987e-07 2.000000e-01  6.250000e-02  
-1.000000e+00  -1.250000e+00  -2.000000e+00  0  3780 0  -3.560673e-01 1.404079e+00 6.908761e-06   5.095983e-06 2.784965e-06 3.810331e-02 2.000000e-01  6.250000e-02  
-1.000000e+00  -1.250000e+00  -1.750000e+00  0  3844 0  -3.911201e+00 -4.390315e+00 -8.556328e-01   4.292094e-01 7.673082e-01 1.764836e-01 2.000000e-01  6.250000e-02  
-7.500000e-01  -1.250000e+00  -2.000000e+00  0  3781 0  5.596249e-02 -7.875880e+00 7.652576e-06   3.708236e-06 2.282500e-06 1.645725e+00 2.000000e-01  6.250000e-02  
-7.500000e-01  -1.250000e+00  -1.750000e+00  0  3845 0  1.032958e+00 1.073424e+00 -4.792885e-02   2.919412e-01 2.086246e+00 6.748594e-01 2.000000e-01  6.250000e-02  
-5.000000e-01  -1.250000e+00  -2.000000e+00  0  3782 0  -6.938140e+00 5.385867e+00 -7.106478e-06   1.197403e-06 3.171127e-06 1.225483e+00 2.000000e-01  6.250000e-02  
-5.000000e-01  -1.250000e+00  -1.750000e+00  0  3846 0  3.220480e-01 4.247415e-01 -4.890580e+00   -3.341821e-01 7.562915e-01 2.453576e-01 2.000000e-01  6.250000e-02  
-2.500000e-01  -1.250000e+00  -2.000000e+00  0  3783 0  9.436296e-01 1.665111e+00 4.691145e-07   5.047312e-07 5.927095e-07 1.094856e+00 2.000000e-01  6.250000e-02  
-2.500000e-01  -1.250000e+00  -1.750000e+00  0  3847 0  -4.470927e-01 -1.534775e+00 -4.477623e+00   -8.575916e-01 4.456440e-01 2.946770e-01 2.000000e-01  6.250000e-02  
0.000000e+00  -1.250000e+00  -2.000000e+00  0  3784 0  6.847309e-03 -1.091289e+01 -2.754741e-06   -6.658033e-07 -6.208057e-07 2.835062e-01 2.000000e-01  6.250000e-02  
0.000000e+00  -1.250000e+00  -1.750000e+00  0  3848 0  1.130369e+00 -7.586607e+00 1.878446e+00   -4.774985e-01 7.176806e-02 7.878105e-02 2.000000e-01  6.250000e-02  
-1.750000e+00  -1.000000e+00  -2.000000e+00  0  3023 0  6.476475e+00 -9.402179e-01 1.954968e-05   -2.532135e-06 1.548081e-06 2.885489e-01 2.000000e-01  6.250000e-02  
-2.000000e+00  -1.000000e+00  -2.000000e+00  0  3022 0  3.077911e-01 7.181365e+00 -4.869762e-05   1.810125e-06 9.800261e-07 -1.312629e-01 2.000000e-01  6.250000e-02  
-1.750000e+00  -1.000000e+00  -1.750000e+00  0  3111 0  3.060434e+00 -3.766813e-01 2.441340e+00   -8.828138e-02 -4.157869e-01 7.688972e-01 2.000000e-01  6.250000e-02  
-2.000000e+00  -1.000000e+00  -1.750000e+00  0  3110 0  -1.127182e+00 -4.128850e+00 4.356668e+00   3.791549e-02 3.349783e-01 -1.217374e-02 2.000000e-01  6.250000e-02  
-1.500000e+00  -1.000000e+00  -2.000000e+00  0  3024 0  1.988412e+00 4.476481e+00 -3.595149e-06   -4.530154e-06 -8.321088e-06 -7.651598e-01 2.000000e-01  6.250000e-02  
-1.500000e+00  -1.000000e+00  -1.750000e+00  0  3112 0  -6.585755e+00 -2.314350e+00 -8.250759e+00   -5.087284e-01 -5.214622e-01 -1.537523e+00 2.000000e-01  6.250000e-02  
-1.250000e+00  -1.000000e+00  -2.000000e+00  0  3787 0  1.404068e+00 -3.560530e-01 6.956928e-06   -2.794141e-06 -5.092155e-06 -3.810558e-02 2.000000e-01  6.250000e-02  
-1.250000e+00  -1.000000e+00  -1.750000e+00  0  3851 0  -4.390314e+00 -3.911203e+00 -8.556296e-01   -7.673079e-01 -4.292123e-01 -1.764839e-01 2.000000e-01  6.250000e-02  
-1.000000e+00  -1.000000e+00  -2.000000e+00  0  3788 0  4.733509e+00 4.733511e+00 3.644425e-06   -7.709119e-07 7.765390e-07 -1.220903e-07 2.000000e-01  6.250000e-02  
-1.000000e+00  -1.000000e+00  -1.750000e+00  0  3852 0  -1.811012e+00 -1.811010e+00 -6.234699e-01   -2.501635e-01 2.501624e-01 -6.391263e-07 2.000000e-01  6.250000e-02  
-7.500000e-01  -1.000000e+00  -2.000000e+00  0  3789 0  7.095827e+00 -5.058064e-01 5.063978e-06   -6.224866e-07 2.476306e-06 -2.550375e+00 2.000000e-01  6.250000e-02  
-7.500000e-01  -1.000000e+00  -1.750000e+00  0  3853 0  2.683765e+00 -1.196216e+00 2.485316e+00   5.236971e-01 2.902663e+00 -2.653751e+00 2.000000e-01  6.250000e-02  
-5.000000e-01  -1.000000e+00  -2.000000e+00  0  3790 0  4.500570e+00 -3.267855e+00 6.278787e-07   -9.761513e-07 1.503683e-08 -1.382097e+00 2.000000e-01  6.250000e-02  
-5.000000e-01  -1.000000e+00  -1.750000e+00  0  3854 0  1.071173e+00 5.292643e+00 9.180358e-02   7.288462e-01 1.994222e+00 -9.610991e-01 2.000000e-01  6.250000e-02  
-2.500000e-01  -1.000000e+00  -2.000000e+00  0  3791 0  1.197296e+01 -3.024436e+00 -9.392047e-07   -4.222563e-07 9.393438e-08 1.135029e+00 2.000000e-01  6.250000e-02  
-2.500000e-01  -1.000000e+00  -1.750000e+00  0  3855 0  7.521921e+00 4.734243e+00 -3.865341e-01   1.612704e+00 8.211458e-01 5.204586e-01 2.000000e-01  6.250000e-02  
0.000000e+00  -1.000000e+00  -2.000000e+00  0  3792 0  3.119087e+00 1.296724e+01 1.115957e-07   -2.707647e-07 2.319496e-07 1.664840e-01 2.000000e-01  6.250000e-02  
0.000000e+00  -1.000000e+00  -1.750000e+00  0  3856 0  -7.869170e-02 -4.879194e+00 -4.195287e+00   2.525067e+00 9.958566e-02 9.018359e-02 2.000000e-01  6.250000e-02  
-1.750000e+00  -7.500000e-01  -2.000000e+00  0  3034 0  1.075080e+01 6.744700e+00 2.376501e-05   -8.904358e-06 2.637257e-06 1.343064e-01 2.000000e-01  6.250000e-02  
-2.000000e+00  -7.500000e-01  -2.000000e+00  0  3033 0  2.038255e+00 -7.802808e+00 3.688038e-05   -4.095200e-06 -1.882113e-06 2.248939e-02 2.000000e-01  6.250000e-02  
-1.750000e+00  -7.500000e-01  -1.750000e+00  0  3122 0  -2.203685e+00 -7.606095e+00 -2.951450e+00   -4.034013e-01 -6.426795e-01 3.629885e-01 2.000000e-01  6.250000e-02  
-2.000000e+00  -7.500000e-01  -1.750000e+00  0  3121 0  -1.219381e+00 7.750988e+00 9.708196e+00   -1.183615e-01 -1.060118e-01 2.735001e-01 2.000000e-01  6.250000e-02  
-1.500000e+00  -7.500000e-01  -2.000000e+00  0  3035 0  6.696473e+00 4.580364e+00 -1.360506e-05   -5.766154e-06 -2.308441e-06 -2.544826e+00 2.000000e-01  6.250000e-02  
-1.500000e+00  -7.500000e-01  -1.750000e+00  0  3123 0  1.916166e+00 6.604885e+00 4.162481e+00   -9.200776e-01 8.699637e-01 -2.708912e+00 2.000000e-01  6.250000e-02  
-1.250000e+00  -7.500000e-01  -2.000000e+00  0  3795 0  -7.875888e+00 5.598079e-02 7.641957e-06   -2.285391e-06 -3.708742e-06 -1.645727e+00 2.000000e-01  6.250000e-02  
-1.250000e+00  -7.500000e-01  -1.750000e+00  0  3859 0  1.073427e+00 1.032947e+00 -4.792623e-02   -2.086244e+00 -2.919429e-01 -6.748615e-01 2.000000e-01  6.250000e-02  
-1.000000e+00  -7.500000e-01  -2.000000e+00  0  3796 0  -5.058040e-01 7.095826e+00 5.051970e-06   -2.472288e-06 6.270628e-07 2.550376e+00 2.000000e-01  6.250000e-02  
-1.000000e+00  -7.500000e-01  -1.750000e+00  0  3860 0  -1.196223e+00 2.683769e+00 2.485314e+00   -2.902662e+00 -5.236972e-01 2.653751e+00 2.000000e-01  6.250000e-02  
-7.500000e-01  -7.500000e-01  -2.000000e+00  0  3797 0  -2.403111e+00 -2.403107e+00 -1.630680e-06   -9.428271e-07 9.479195e-07 2.159188e-08 2.000000e-01  6.250000e-02  
-7.500000e-01  -7.500000e-01  -1.750000e+00  0  3861 0  -6.009252e+00 -6.009252e+00 -1.543250e+00   -1.754885e+00 1.754886e+00 6.281802e-07 2.000000e-01  6.250000e-02  
-5.000000e-01  -7.500000e-01  -2.000000e+00  0  3798 0  4.174719e+00 -2.568227e-01 2.626807e-07   3.328692e-08 -1.274720e-06 -6.419698e-01 2.000000e-01  6.250000e-02  
-5.000000e-01  -7.500000e-01  -1.750000e+00  0  3862 0  2.700422e-01 -4.285529e+00 -9.620122e-01   -6.428945e-01 1.513936e+00 -6.486663e-01 2.000000e-01  6.250000e-02  
-2.500000e-01  -7.500000e-01  -2.000000e+00  0  3799 0  -1.019884e+01 3.336223e+00 -5.891862e-07   -1.173727e-08 -9.734225e-07 1.102595e-01 2.000000e-01  6.250000e-02  
-2.500000e-01  -7.500000e-01  -1.750000e+00  0  3863 0  2.563559e+00 3.177838e+00 -9.477120e-01   1.026079e+00 -1.426563e-01 -7.982119e-01 2.000000e-01  6.250000e-02  
0.000000e+00  -7.500000e-01  -2.000000e+00  0  3800 0  8.608696e-01 -1.256002e+00 1.101794e-06   -6.485061e-08 -1.654793e-07 -3.242836e-01 2.000000e-01  6.250000e-02  
0.000000e+00  -7.500000e-01  -1.750000e+00  0  3864 0  8.161058e-01 -4.429959e-02 -4.709363e+00   2.544720e+00 1.097352e-01 -2.022914e-01 2.000000e-01  6.250000e-02  
-1.750000e+00  -5.000000e-01  -2.000000e+00  0  3045 0  -1.223035e+00 2.104834e+00 -2.511251e-05   -1.502638e-05 4.316418e-06 -1.261599e+00 2.000000e-01  6.250000e-02  
-2.000000e+00  -5.000000e-01  -2.000000e+00  0  3044 0  -6.317488e+00 -2.764534e-01 8.710396e-06   -6.942345e-06 2.982175e-07 -4.876306e-01 2.000000e-01  6.250000e-02  
-1.750000e+00  -5.000000e-01  -1.750000e+00  0  3133 0  -2.324196e+00 2.111223e+00 -3.907986e+00   1.112148e-01 -5.509395e-01 -8.525526e-01 2.000000e-01  6.250000e-02  
-2.000000e+00  -5.000000e-01  -1.750000e+00  0  3132 0  1.884407e+00 -1.193037e+00 3.979989e+00   7.529402e-01 -4.157733e-01 -2.315740e-01 2.000000e-01  6.250000e-02  
-1.500000e+00  -5.000000e-01  -2.000000e+00  0  3046 0  1.555210e+00 5.978373e+00 -3.297728e-05   -1.086517e-05 2.243446e-06 -1.171776e+00 2.000000e-01  6.250000e-02  
-1.500000e+00  -5.000000e-01  -1.750000e+00  0  3134 0  -6.347507e+00 -1.770281e+00 5.997429e+00   2.765399e-01 1.630140e-01 -6.788712e-01 2.000000e-01  6.250000e-02  
-1.250000e+00  -5.000000e-01  -2.000000e+00  0  3803 0  5.385871e+00 -6.938148e+00 -7.119481e-06   -3.175515e-06 -1.192421e-06 -1.225486e+00 2.000000e-01  6.250000e-02  
-1.250000e+00  -5.000000e-01  -1.750000e+00  0  3867 0  4.247508e-01 3.220510e-01 -4.890572e+00   -7.562944e-01 3.341794e-01 -2.453606e-01 2.000000e-01  6.250000e-02  
-1.000000e+00  -5.000000e-01  -2.000000e+00  0  3804 0  -3.267847e+00 4.500571e+00 6.415161e-07   -1.920598e-08 9.788737e-07 1.382096e+00 2.000000e-01  6.250000e-02  
-1.000000e+00  -5.000000e-01  -1.750000e+00  0  3868 0  5.292645e+00 1.071178e+00 9.180683e-02   -1.994223e+00 -7.288470e-01 9.610988e-01 2.000000e-01  6.250000e-02  
-7.500000e-01  -5.000000e-01  -2.000000e+00  0  3805 0  -2.568219e-01 4.174722e+00 2.576060e-07   1.273682e-06 -3.069034e-08 6.419695e-01 2.000000e-01  6.250000e-02  
-7.500000e-01  -5.000000e-01  -1.750000e+00  0  3869 0  -4.285526e+00 2.700416e-01 -9.620139e-01   -1.513936e+00 6.428942e-01 6.486661e-01 2.000000e-01  6.250000e-02  
-5.000000e-01  -5.000000e-01  -2.000000e+00  0  3806 0  -8.937799e+00 -8.937802e+00 -8.969905e-07   5.569910e-07 -5.564720e-07 -9.193595e-08 2.000000e-01  6.250000e-02  
-5.000000e-01  -5.000000e-01  -1.750000e+00  0  3870 0  -2.035282e+00 -2.035284e+00 7.712802e+00   -1.450289e+00 1.450289e+00 -1.376898e-07 2.000000e-01  6.250000e-02  
-2.500000e-01  -5.000000e-01  -2.000000e+00  0  3807 0  1.417988e+00 1.164158e+00 5.084984e-07   -2.542225e-08 -4.293751e-07 4.680999e-01 2.000000e-01  6.250000e-02  
-2.500000e-01  -5.000000e-01  -1.750000e+00  0  3871 0  5.849538e+00 2.136990e+00 1.443866e+00   -7.227396e-01 -7.077477e-01 -3.845178e-01 2.000000e-01  6.250000e-02  
0.000000e+00  -5.000000e-01  -2.000000e+00  0  3808 0  -1.478454e+00 -7.064994e+00 -9.756917e-07   -2.863978e-07 -4.671694e-08 3.817240e-02 2.000000e-01  6.250000e-02  
0.000000e+00  -5.000000e-01  -1.750000e+00  0  3872 0  -8.253777e-02 -1.764451e+00 1.206107e+00   5.067201e-02 -3.438343e-02 9.442625e-02 2.000000e-01  6.250000e-02  
-1.750000e+00  -2.500000e-01  -2.000000e+00  0  3056 0  2.109470e+00 -4.561626e+00 -3.943920e-06   -5.761504e-06 1.405125e-06 1.938131e-02 2.000000e-01  6.250000e-02  
-2.000000e+00  -2.500000e-01  -2.000000e+00  0  3055 0  1.235702e+00 8.145057e+00 -7.773021e-06   -3.781415e-06 1.313102e-06 2.308962e-01 2.000000e-01  6.250000e-02  
-1.750000e+00  -2.500000e-01  -1.750000e+00  0  3144 0  -4.761503e+00 2.093032e+00 -6.462691e+00   6.654007e-01 -3.148337e-01 -9.853572e-01 2.000000e-01  6.250000e-02  
-2.000000e+00  -2.500000e-01  -1.750000e+00  0  3143 0  1.277750e+00 -3.573944e+00 8.129718e-01   -1.624827e-01 -2.653813e-01 -2.112080e-03 2.000000e-01  6.250000e-02  
-1.500000e+00  -2.500000e-01  -2.000000e+00  0  3057 0  -1.614757e+00 8.378336e+00 -5.317808e-06   -2.609574e-06 1.162443e-07 -1.379846e-02 2.000000e-01  6.250000e-02  
-1.500000e+00  -2.500000e-01  -1.750000e+00  0  3145 0  -4.880854e+00 3.808449e+00 5.285899e+00   8.424477e-01 -2.259797e-01 -1.004974e-01 2.000000e-01  6.250000e-02  
-1.250000e+00  -2.500000e-01  -2.000000e+00  0  3811 0  1.665097e+00 9.436348e-01 4.612342e-07   -5.906926e-07 -5.044363e-07 -1.094858e+00 2.000000e-01  6.250000e-02  
-1.250000e+00  -2.500000e-01  -1.750000e+00  0  3875 0  -1.534785e+00 -4.471008e-01 -4.477623e+00   -4.456470e-01 8.575859e-01 -2.946814e-01 2.000000e-01  6.250000e-02  
-1.000000e+00  -2.500000e-01  -2.000000e+00  0  3812 0  -3.024434e+00 1.197296e+01 -9.372271e-07   -8.731457e-08 4.210612e-07 -1.135032e+00 2.000000e-01  6.250000e-02  
-1.000000e+00  -2.500000e-01  -1.750000e+00  0  3876 0  4.734242e+00 7.521926e+00 -3.865422e-01   -8.211461e-01 -1.612707e+00 -5.204597e-01 2.000000e-01  6.250000e-02  
-7.500000e-01  -2.500000e-01  -2.000000e+00  0  3813 0  3.336225e+00 -1.019884e+01 -5.906601e-07   9.756976e-07 1.046456e-08 -1.102597e-01 2.000000e-01  6.250000e-02  
-7.500000e-01  -2.500000e-01  -1.750000e+00  0  3877 0  3.177844e+00 2.563544e+00 -9.477167e-01   1.426558e-01 -1.026079e+00 7.982114e-01 2.000000e-01  6.250000e-02  
-5.000000e-01  -2.500000e-01  -2.000000e+00  0  3814 0  1.164156e+00 1.417995e+00 5.088916e-07   4.297965e-07 2.469717e-08 -4.681004e-01 2.000000e-01  6.250000e-02  
-5.000000e-01  -2.500000e-01  -1.750000e+00  0  3878 0  2.136987e+00 5.849539e+00 1.443865e+00   7.077475e-01 7.227397e-01 3.845172e-01 2.000000e-01  6.250000e-02  
-2.500000e-01  -2.500000e-01  -2.000000e+00  0  3815 0  -1.466036e+00 -1.466036e+00 -1.536990e-06   -9.979238e-08 9.876136e-08 6.060422e-07 2.000000e-01  6.250000e-02  
-2.500000e-01  -2.500000e-01  -1.750000e+00  0  3879 0  3.746201e+00 3.746202e+00 4.931030e+00   2.340548e-01 -2.340548e-01 4.348908e-07 2.000000e-01  6.250000e-02  
0.000000e+00  -2.500000e-01  -2.000000e+00  0  3816 0  -4.366108e-01 -2.582128e+00 2.657111e-07   1.673721e-08 1.155581e-07 1.446819e-01 2.000000e-01  6.250000e-02  
0.000000e+00  -2.500000e-01  -1.750000e+00  0  3880 0  3.425607e-01 -1.213915e-01 -5.210532e+00   -5.562360e-03 -1.804739e-01 7.964849e-02 2.000000e-01  6.250000e-02  
-1.750000e+00  0.000000e+00  -2.000000e+00  0  3067 0  -4.244946e+00 9.080401e-01 -1.841959e-05   1.781467e-06 -1.501932e-06 6.280903e-01 2.000000e-01  6.250000e-02  
-2.000000e+00  0.000000e+00  -2.000000e+00  0  3066 0  -2.568151e-06 1.212479e-05 1.099712e-06   -1.132843e-08 1.699251e-08 6.646364e-01 2.000000e-01  6.250000e-02  
-1.750000e+00  0.000000e+00  -1.750000e+00  0  3155 0  4.366612e+00 -1.860109e+00 4.950604e+00   2.369085e-01 6.216476e-02 3.507197e-01 2.000000e-01  6.250000e-02  
-2.000000e+00  0.000000e+00  -1.750000e+00  0  3154 0  -1.568914e-05 6.815375e-07 -4.960315e+00   7.596257e-08 2.073609e-06 4.725845e-01 2.000000e-01  6.250000e-02  
-1.500000e+00  0.000000e+00  -2.000000e+00  0  3068 0  8.137624e-02 8.686826e-01 3.250842e-06   2.362214e-06 -9.356151e-07 3.965267e-01 2.000000e-01  6.250000e-02  
-1.500000e+00  0.000000e+00  -1.750000e+00  0  3156 0  -1.983410e-01 -1.935084e+00 3.562960e+00   1.149629e-01 7.643590e-01 3.428964e-01 2.000000e-01  6.250000e-02  
-1.250000e+00  0.000000e+00  -2.000000e+00  0  3819 0  -1.091290e+01 6.843734e-03 -2.726790e-06   6.291556e-07 6.566768e-07 -2.835069e-01 2.000000e-01  6.250000e-02  
-1.250000e+00  0.000000e+00  -1.750000e+00  0  3883 0  -7.586611e+00 1.130337e+00 1.878449e+00   -7.176153e-02 4.774970e-01 -7.878540e-02 2.000000e-01  6.250000e-02  
-1.000000e+00  0.000000e+00  -2.000000e+00  0  3820 0  1.296723e+01 3.119088e+00 1.286661e-07   -2.210650e-07 2.653170e-07 -1.664858e-01 2.000000e-01  6.250000e-02  
-1.000000e+00  0.000000e+00  -1.750000e+00  0  3884 0  -4.879200e+00 -7.867881e-02 -4.195287e+00   -9.958376e-02 -2.525070e+00 -9.018370e-02 2.000000e-01  6.250000e-02  
-7.500000e-01  0.000000e+00  -2.000000e+00  0  3821 0  -1.256004e+00 8.608702e-01 1.101129e-06   1.685839e-07 6.219475e-08 3.242835e-01 2.000000e-01  6.250000e-02  
-7.500000e-01  0.000000e+00  -1.750000e+00  0  3885 0  -4.429575e-02 8.161000e-01 -4.709364e+00   -1.097363e-01 -2.544720e+00 2.022911e-01 2.000000e-01  6.250000e-02  
-5.000000e-01  0.000000e+00  -2.000000e+00  0  3822 0  -7.064998e+00 -1.478456e+00 -9.750433e-07   4.716968e-08 2.822330e-07 -3.817362e-02 2.000000e-01  6.250000e-02  
-5.000000e-01  0.000000e+00  -1.750000e+00  0  3886 0  -1.764451e+00 -8.253497e-02 1.206106e+00   3.438231e-02 -5.067178e-02 -9.442728e-02 2.000000e-01  6.250000e-02  
-2.500000e-01  0.000000e+00  -2.000000e+00  0  3823 0  -2.582128e+00 -4.366095e-01 2.528728e-07   -1.152943e-07 -1.931275e-08 -1.446815e-01 2.000000e-01  6.250000e-02  
-2.500000e-01  0.000000e+00  -1.750000e+00  0  3887 0  -1.213911e-01 3.425604e-01 -5.210531e+00   1.804730e-01 5.562130e-03 -7.964814e-02 2.000000e-01  6.250000e-02  
0.000000e+00  0.000000e+00  -2.000000e+00  0  3824 0  1.515063e-06 -5.854661e-08 -2.212939e-06   8.318769e-10 -4.572562e-10 3.126927e-08 2.000000e-01  6.250000e-02  
0.000000e+00  0.000000e+00  -1.750000e+00  0  3888 0  -3.311579e-07 1.029201e-07 -1.078335e+00   -3.864892e-10 -3.867873e-07 1.743249e-08 2.000000e-01  6.250000e-02  
-2.000000e+00  -2.000000e+00  -1.500000e+00  0  1306 0  9.885004e-06 -1.461668e-05 8.165305e+00   4.285066e-06 2.337463e-05 4.450929e-07 2.000000e-01  6.250000e-02  
-1.750000e+00  -2.000000e+00  -1.500000e+00  0  1307 0  2.790899e+00 8.285547e-01 3.711367e+00   5.008591e-02 -1.573881e+00 -6.336553e-01 2.000000e-01  6.250000e-02  
-1.750000e+00  -1.750000e+00  -1.500000e+00  0  1318 0  -1.392252e+00 -1.392228e+00 1.180415e+00   1.293525e+00 -1.293511e+00 -6.588141e-06 2.000000e-01  6.250000e-02  
-2.000000e+00  -1.750000e+00  -1.500000e+00  0  1317 0  8.285627e-01 2.790849e+00 3.711379e+00   1.573890e+00 -5.006872e-02 6.336506e-01 2.000000e-01  6.250000e-02  
-1.500000e+00  -2.000000e+00  -1.500000e+00  0  1308 0  -6.620564e+00 3.392633e+00 -8.028152e+00   -1.244742e-01 2.132766e-01 -3.705782e-01 2.000000e-01  6.250000e-02  
-1.500000e+00  -1.750000e+00  -1.500000e+00  0  1319 0  -4.984338e+00 -5.267204e-01 -2.853276e+00   1.175207e-01 7.761106e-01 -4.281807e-01 2.000000e-01  6.250000e-02  
-1.250000e+00  -2.000000e+00  -1.500000e+00  0  2275 0  -2.125242e+00 -3.642152e-01 2.900374e-01   -4.500657e-01 3.455734e-01 1.409118e-01 2.000000e-01  6.250000e-02  
-1.250000e+00  -1.750000e+00  -1.500000e+00  0  2283 0  3.545899e+00 -2.942974e-01 -1.928953e+00   -6.637549e-01 8.506950e-01 -1.069792e+00 2.000000e-01  6.250000e-02  
-1.000000e+00  -2.000000e+00  -1.500000e+00  0  2276 0  9.044170e+00 -3.271830e-02 3.523572e+00   -1.869197e-01 -1.262896e+00 -7.473382e-03 2.000000e-01  6.250000e-02  
-1.000000e+00  -1.750000e+00  -1.500000e+00  0  2284 0  -1.688799e+00 1.636306e+00 -1.087124e+00   1.415585e-01 -2.394399e+00 -1.260112e+00 2.000000e-01  6.250000e-02  
-7.500000e-01  -2.000000e+00  -1.500000e+00  0  2277 0  3.885318e+00 4.961202e-01 4.043147e+00   -1.241899e-01 -2.967201e+00 -1.654942e-01 2.000000e-01  6.250000e-02  
-7.500000e-01  -1.750000e+00  -1.500000e+00  0  2285 0  7.627304e+00 3.071706e+00 9.458535e-01   8.732121e-01 -3.367964e+00 -3.013897e-01 2.000000e-01  6.250000e-02  
-5.000000e-01  -2.000000e+00  -1.500000e+00  0  2278 0  3.432351e+00 4.987470e-01 2.739273e+00   -3.150563e-01 -1.632331e+00 -3.036248e-01 2.000000e-01  6.250000e-02  
-5.000000e-01  -1.750000e+00  -1.500000e+00  0  2286 0  -5.747293e+00 5.225167e+00 -5.276870e+00   -1.450251e-01 -7.021311e-01 7.530246e-01 2.000000e-01  6.250000e-02  
-2.500000e-01  -2.000000e+00  -1.500000e+00  0  2279 0  8.486299e+00 -6.761291e-01 -1.307195e+00   -8.534282e-02 4.845440e-01 -5.494031e-02 2.000000e-01  6.250000e-02  