VARIABLES="X", "Y", "Z", "Maximum Refinment Level", "Temp_ID", "Thread","Ex (corner node)","Ey (corner node)","Ez (corner node)","Bx (center node)","By (center node)","Bz (center node)", "Local Time Step" , "log10(Local Particle Weight)" 
ZONE N=4913, E=4096, DATAPACKING=POINT, ZONETYPE=FEBRICK
-2.000000e+00  -2.000000e+00  -2.000000e+00  0  1064 0  -2.512275e-05 -1.256076e-05 -5.813862e-06   3.973717e-10 -1.133526e-10 -3.712187e-10 2.000000e-01  6.250000e-02  
-1.750000e+00  -2.000000e+00  -2.000000e+00  0  1065 0  1.018185e+01 2.662270e-06 2.739361e-06   -4.354742e-09 -1.766326e-06 1.668819e-06 2.000000e-01  6.250000e-02  
-1.750000e+00  -1.750000e+00  -2.000000e+00  0  1076 0  -3.341298e-01 -3.341241e-01 -1.515999e-05   9.797003e-07 -9.726503e-07 -6.494162e-08 2.000000e-01  6.250000e-02  
-2.000000e+00  -1.750000e+00  -2.000000e+00  0  1075 0  2.338709e-06 1.018185e+01 2.658824e-06   1.753637e-06 -1.256196e-09 -1.926334e-06 2.000000e-01  6.250000e-02  
-2.000000e+00  -2.000000e+00  -1.750000e+00  0  1185 0  2.388672e-06 2.627598e-06 1.018185e+01   -1.656512e-06 1.927947e-06 6.043822e-09 2.000000e-01  6.250000e-02  
-1.750000e+00  -2.000000e+00  -1.750000e+00  0  1186 0  -3.341233e-01 -1.821871e-05 -3.341167e-01   -9.194387e-07 -1.617768e-07 9.150685e-07 2.000000e-01  6.250000e-02  
-1.750000e+00  -1.750000e+00  -1.750000e+00  0  1197 0  1.643175e+00 1.643176e+00 1.643183e+00   1.021889e-07 3.039545e-09 -1.056661e-07 2.000000e-01  6.250000e-02  
-2.000000e+00  -1.750000e+00  -1.750000e+00  0  1196 0  -2.464687e-05 -3.341219e-01 -3.341210e-01   2.258306e-07 1.073096e-06 -1.075516e-06 2.000000e-01  6.250000e-02  
-1.500000e+00  -2.000000e+00  -2.000000e+00  0  1066 0  -8.860868e+00 -9.493345e-06 -8.274373e-06   -5.391122e-09 -1.271491e-06 1.429530e-06 2.000000e-01  6.250000e-02  
-1.500000e+00  -1.750000e+00  -2.000000e+00  0  1077 0  1.519629e+01 -5.917859e+00 -1.128289e-06   -1.577624e-07 -2.888141e-08 -1.647542e+00 2.000000e-01  6.250000e-02  
-1.500000e+00  -2.000000e+00  -1.750000e+00  0  1187 0  1.519629e+01 -1.307523e-06 -5.917861e+00   2.077776e-07 1.647542e+00 -1.354185e-08 2.000000e-01  6.250000e-02  
-1.500000e+00  -1.750000e+00  -1.750000e+00  0  1198 0  9.612027e-01 -1.626666e+01 -1.626666e+01   -6.837664e-08 2.103217e+00 -2.103217e+00 2.000000e-01  6.250000e-02  
-1.250000e+00  -2.000000e+00  -2.000000e+00  0  2099 0  -2.694821e+01 -4.858220e-06 -4.254861e-06   -1.105141e-09 -9.774575e-07 1.121573e-06 2.000000e-01  6.250000e-02  
-1.250000e+00  -1.750000e+00  -2.000000e+00  0  2107 0  5.823757e+00 4.798391e-01 5.066677e-07   -4.178787e-07 -6.333979e-07 -1.121457e-01 2.000000e-01  6.250000e-02  
-1.250000e+00  -2.000000e+00  -1.750000e+00  0  2187 0  5.823757e+00 5.906857e-07 4.798391e-01   4.674095e-07 1.121458e-01 7.290142e-07 2.000000e-01  6.250000e-02  
-1.250000e+00  -1.750000e+00  -1.750000e+00  0  2195 0  3.261582e+00 -1.479633e+01 -1.479632e+01   -2.885646e-08 -7.847241e-01 7.847242e-01 2.000000e-01  6.250000e-02  
-1.000000e+00  -2.000000e+00  -2.000000e+00  0  2100 0  3.900636e+00 -4.889426e-06 -4.314013e-06   -5.162320e-10 9.698524e-09 7.343871e-10 2.000000e-01  6.250000e-02  
-1.000000e+00  -1.750000e+00  -2.000000e+00  0  2108 0  1.692471e+01 -1.503058e+01 -7.819450e-07   -3.200160e-07 -8.373788e-08 2.099067e+00 2.000000e-01  6.250000e-02  
-1.000000e+00  -2.000000e+00  -1.750000e+00  0  2188 0  1.692471e+01 -9.045115e-07 -1.503058e+01   3.505519e-07 -2.099067e+00 1.015602e-07 2.000000e-01  6.250000e-02  
-1.000000e+00  -1.750000e+00  -1.750000e+00  0  2196 0  8.244597e+00 -4.281531e+00 -4.281531e+00   2.445602e-08 -1.749940e+00 1.749940e+00 2.000000e-01  6.250000e-02  
-7.500000e-01  -2.000000e+00  -2.000000e+00  0  2101 0  -1.931974e+01 1.626376e-07 1.544189e-07   -4.559180e-10 -2.737558e-08 4.207589e-08 2.000000e-01  6.250000e-02  
-7.500000e-01  -1.750000e+00  -2.000000e+00  0  2109 0  -3.975955e+00 -1.816197e+01 -6.103701e-07   -2.093823e-07 -2.725685e-08 1.615961e+00 2.000000e-01  6.250000e-02  
-7.500000e-01  -2.000000e+00  -1.750000e+00  0  2189 0  -3.975956e+00 -6.790024e-07 -1.816197e+01   2.398985e-07 -1.615961e+00 3.707357e-08 2.000000e-01  6.250000e-02  
-7.500000e-01  -1.750000e+00  -1.750000e+00  0  2197 0  -1.818797e+01 -4.426282e+00 -4.426282e+00   -4.553257e-09 -1.001605e+00 1.001605e+00 2.000000e-01  6.250000e-02  
-5.000000e-01  -2.000000e+00  -2.000000e+00  0  2102 0  -1.470718e+01 1.792375e-08 4.918721e-08   -2.842115e-10 -3.983993e-08 3.733377e-08 2.000000e-01  6.250000e-02  
-5.000000e-01  -1.750000e+00  -2.000000e+00  0  2110 0  -4.206525e+00 -3.391851e+00 -1.197583e-06   -8.743988e-08 2.878707e-09 8.041645e-01 2.000000e-01  6.250000e-02  
-5.000000e-01  -2.000000e+00  -1.750000e+00  0  2190 0  -4.206525e+00 -1.424001e-06 -3.391851e+00   1.055794e-07 -8.041645e-01 -8.049338e-09 2.000000e-01  6.250000e-02  
-5.000000e-01  -1.750000e+00  -1.750000e+00  0  2198 0  -2.350760e+00 -1.516257e+01 -1.516257e+01   1.696907e-09 -7.102938e-01 7.102938e-01 2.000000e-01  6.250000e-02  
-2.500000e-01  -2.000000e+00  -2.000000e+00  0  2103 0  3.891978e+00 -6.685406e-07 -5.698141e-07   1.108872e-10 -8.811418e-09 6.480777e-09 2.000000e-01  6.250000e-02  
-2.500000e-01  -1.750000e+00  -2.000000e+00  0  2111 0  -1.284892e-01 -1.724758e+01 2.358816e-07   -4.282429e-08 -4.731064e-10 3.121936e-01 2.000000e-01  6.250000e-02  
-2.500000e-01  -2.000000e+00  -1.750000e+00  0  2191 0  -1.284893e-01 2.775512e-07 -1.724758e+01   5.225709e-08 -3.121936e-01 -1.629202e-09 2.000000e-01  6.250000e-02  
-2.500000e-01  -1.750000e+00  -1.750000e+00  0  2199 0  2.098703e+01 -2.329017e-01 -2.329016e-01   4.323372e-09 -3.877692e-01 3.877692e-01 2.000000e-01  6.250000e-02  
0.000000e+00  -2.000000e+00  -2.000000e+00  0  2104 0  -5.020822e-07 -1.002642e-06 -8.599276e-07   2.703410e-10 -9.979668e-10 1.489010e-09 2.000000e-01  6.250000e-02  
0.000000e+00  -1.750000e+00  -2.000000e+00  0  2112 0  2.050918e-06 -2.319743e+00 1.218020e-07   -1.931531e-08 -1.451571e-10 -1.064472e-06 2.000000e-01  6.250000e-02  
0.000000e+00  -2.000000e+00  -1.750000e+00  0  2192 0  2.047476e-06 1.367174e-07 -2.319742e+00   2.359616e-08 1.064774e-06 3.933551e-10 2.000000e-01  6.250000e-02  
0.000000e+00  -1.750000e+00  -1.750000e+00  0  2200 0  -4.868948e-06 -1.764734e+01 -1.764734e+01   7.265507e-09 7.731249e-07 -7.729821e-07 2.000000e-01  6.250000e-02  
-1.750000e+00  -1.500000e+00  -2.000000e+00  0  1087 0  -5.917862e+00 1.519629e+01 -1.162127e-06   3.041921e-08 1.624857e-07 1.647542e+00 2.000000e-01  6.250000e-02  
-2.000000e+00  -1.500000e+00  -2.000000e+00  0  1086 0  -1.365352e-05 -8.860879e+00 -8.285041e-06   1.273859e-06 -1.164323e-09 -1.931635e-06 2.000000e-01  6.250000e-02  
-1.750000e+00  -1.500000e+00  -1.750000e+00  0  1208 0  -1.626667e+01 9.612008e-01 -1.626667e+01   -2.103218e+00 1.512824e-08 2.103217e+00 2.000000e-01  6.250000e-02  
-2.000000e+00  -1.500000e+00  -1.750000e+00  0  1207 0  -1.840020e-06 1.519629e+01 -5.917859e+00   -1.647542e+00 -3.065759e-07 2.122387e-08 2.000000e-01  6.250000e-02  
-1.500000e+00  -1.500000e+00  -2.000000e+00  0  1088 0  2.292440e+00 2.292441e+00 -3.525018e-07   -5.666071e-07 5.702832e-07 -1.026696e-07 2.000000e-01  6.250000e-02  
-1.500000e+00  -1.500000e+00  -1.750000e+00  0  1209 0  5.873099e+00 5.873100e+00 -1.848965e+01   -2.169619e+00 2.169619e+00 -9.728211e-08 2.000000e-01  6.250000e-02  
-1.250000e+00  -1.500000e+00  -2.000000e+00  0  2115 0  -6.933286e+00 5.954006e+00 -1.326074e-06   8.567013e-08 -2.181615e-07 -8.810850e-01 2.000000e-01  6.250000e-02  
-1.250000e+00  -1.500000e+00  -1.750000e+00  0  2203 0  -2.896822e+00 1.006052e+01 -1.320086e+01   -1.745500e+00 -1.292825e+00 -1.304701e+00 2.000000e-01  6.250000e-02  
-1.000000e+00  -1.500000e+00  -2.000000e+00  0  2116 0  4.350979e+00 1.328762e+01 -5.935586e-08   2.859161e-08 -1.769723e-07 9.878876e-01 2.000000e-01  6.250000e-02  
-1.000000e+00  -1.500000e+00  -1.750000e+00  0  2204 0  2.281402e-01 9.479587e+00 -4.056756e+00   -7.960005e-01 -1.283464e+00 -4.411465e-02 2.000000e-01  6.250000e-02  
-7.500000e-01  -1.500000e+00  -2.000000e+00  0  2117 0  -6.452035e+00 2.655320e+00 2.253326e-07   -9.507004e-09 1.064472e-09 -1.766330e-01 2.000000e-01  6.250000e-02  
-7.500000e-01  -1.500000e+00  -1.750000e+00  0  2205 0  -1.451409e+01 2.148396e+01 -1.068424e+01   -1.745700e-01 -7.228578e-01 4.521981e-01 2.000000e-01  6.250000e-02  
-5.000000e-01  -1.500000e+00  -2.000000e+00  0  2118 0  -4.334518e+00 9.872002e+00 3.941345e-07   7.548952e-09 1.869915e-08 -9.444689e-01 2.000000e-01  6.250000e-02  
-5.000000e-01  -1.500000e+00  -1.750000e+00  0  2206 0  4.201680e+00 2.171561e+01 -1.287935e+01   -6.069296e-01 -7.124291e-01 -7.093265e-01 2.000000e-01  6.250000e-02  
-2.500000e-01  -1.500000e+00  -2.000000e+00  0  2119 0  1.030705e+00 7.617636e+00 -8.609145e-08   -1.504974e-08 7.923319e-09 -7.788971e-01 2.000000e-01  6.250000e-02  
-2.500000e-01  -1.500000e+00  -1.750000e+00  0  2207 0  -2.922481e+00 1.615728e+01 -4.686087e+00   -6.473482e-01 -4.559073e-01 -8.850524e-01 2.000000e-01  6.250000e-02  
0.000000e+00  -1.500000e+00  -2.000000e+00  0  2120 0  -9.745868e-08 7.656192e+00 -1.693327e-07   -2.664328e-08 1.862575e-10 -3.298449e-07 2.000000e-01  6.250000e-02  
0.000000e+00  -1.500000e+00  -1.750000e+00  0  2208 0  7.425923e-07 2.251002e+01 -1.321126e+01   -5.486302e-01 2.240793e-07 -2.380967e-07 2.000000e-01  6.250000e-02  
-1.750000e+00  -1.250000e+00  -2.000000e+00  0  3012 0  4.798356e-01 5.823757e+00 4.828895e-07   6.357265e-07 4.219424e-07 1.121468e-01 2.000000e-01  6.250000e-02  
-2.000000e+00  -1.250000e+00  -2.000000e+00  0  3011 0  -6.909223e-06 -2.694819e+01 -4.282079e-06   9.820897e-07 -2.432974e-11 -1.583804e-06 2.000000e-01  6.250000e-02  
-1.750000e+00  -1.250000e+00  -1.750000e+00  0  3100 0  -1.479633e+01 3.261581e+00 -1.479632e+01   7.847235e-01 -1.448789e-07 -7.847236e-01 2.000000e-01  6.250000e-02  
-2.000000e+00  -1.250000e+00  -1.750000e+00  0  3099 0  8.064315e-07 5.823757e+00 4.798370e-01   -1.121467e-01 -6.854628e-07 -1.025290e-06 2.000000e-01  6.250000e-02  
-1.500000e+00  -1.250000e+00  -2.000000e+00  0  3013 0  5.954006e+00 -6.933285e+00 -1.321148e-06   2.174118e-07 -8.156834e-08 8.810851e-01 2.000000e-01  6.250000e-02  
-1.500000e+00  -1.250000e+00  -1.750000e+00  0  3101 0  1.006052e+01 -2.896822e+00 -1.320086e+01   1.292825e+00 1.745500e+00 1.304701e+00 2.000000e-01  6.250000e-02  
-1.250000e+00  -1.250000e+00  -2.000000e+00  0  3779 0  -2.077856e+00 -2.077856e+00 2.186080e-07   1.759915e-07 -1.750087e-07 6.875449e-09 2.000000e-01  6.250000e-02  
-1.250000e+00  -1.250000e+00  -1.750000e+00  0  3843 0  -4.502657e+00 -4.502657e+00 -1.139270e+01   4.393737e-01 -4.393737e-01 -2.150526e-08 2.000000e-01  6.250000e-02  
-1.000000e+00  -1.250000e+00  -2.000000e+00  0  3780 0  7.005709e+00 -9.606356e-01 -1.713856e-07   8.846277e-08 -1.203425e-07 -1.799077e+00 2.000000e-01  6.250000e-02  
-1.000000e+00  -1.250000e+00  -1.750000e+00  0  3844 0  4.690440e+00 -5.145819e+00 -1.500599e+01   3.967723e-01 -8.007035e-01 -2.586570e+00 2.000000e-01  6.250000e-02  
-7.500000e-01  -1.250000e+00  -2.000000e+00  0  3781 0  -1.424087e+01 -4.669339e+00 -7.179814e-08   -8.941385e-09 2.248656e-08 -3.799826e-01 2.000000e-01  6.250000e-02  
-7.500000e-01  -1.250000e+00  -1.750000e+00  0  3845 0  -5.304710e+00 -6.351335e+00 -1.818639e+01   7.854592e-01 -9.634998e-01 -4.415547e-01 2.000000e-01  6.250000e-02  
-5.000000e-01  -1.250000e+00  -2.000000e+00  0  3782 0  -7.984502e+00 2.548489e+00 -4.110760e-08   3.127617e-09 -6.767127e-09 1.385644e-01 2.000000e-01  6.250000e-02  
-5.000000e-01  -1.250000e+00  -1.750000e+00  0  3846 0  1.512653e+00 -7.153269e+00 -1.525589e+01   8.534363e-01 -6.408684e-01 -1.303733e-01 2.000000e-01  6.250000e-02  
-2.500000e-01  -1.250000e+00  -2.000000e+00  0  3783 0  2.507287e+00 -1.568410e+00 -1.006839e-08   3.462347e-10 4.100063e-09 -1.612550e-01 2.000000e-01  6.250000e-02  
-2.500000e-01  -1.250000e+00  -1.750000e+00  0  3847 0  1.150865e+00 -5.978062e+00 -1.575092e+01   9.694950e-01 -3.776735e-01 -2.467390e-01 2.000000e-01  6.250000e-02  
0.000000e+00  -1.250000e+00  -2.000000e+00  0  3784 0  1.513460e-07 3.160910e+00 1.931569e-08   4.531761e-09 1.258222e-10 -3.828003e-08 2.000000e-01  6.250000e-02  
0.000000e+00  -1.250000e+00  -1.750000e+00  0  3848 0  -1.457327e-07 -8.835873e+00 -1.615309e+01   9.841827e-01 -1.105683e-08 -2.849230e-08 2.000000e-01  6.250000e-02  
-1.750000e+00  -1.000000e+00  -2.000000e+00  0  3023 0  -1.503058e+01 1.692471e+01 -7.960405e-07   8.002408e-08 3.256053e-07 -2.099066e+00 2.000000e-01  6.250000e-02  
-2.000000e+00  -1.000000e+00  -2.000000e+00  0  3022 0  -7.052182e-06 3.900636e+00 -4.376511e-06   -1.196940e-08 -3.967634e-11 1.911041e-08 2.000000e-01  6.250000e-02  
-1.750000e+00  -1.000000e+00  -1.750000e+00  0  3111 0  -4.281531e+00 8.244600e+00 -4.281530e+00   1.749940e+00 -1.144153e-07 -1.749939e+00 2.000000e-01  6.250000e-02  
-2.000000e+00  -1.000000e+00  -1.750000e+00  0  3110 0  -1.275559e-06 1.692471e+01 -1.503058e+01   2.099066e+00 -5.274085e-07 -1.323201e-07 2.000000e-01  6.250000e-02  
-1.500000e+00  -1.000000e+00  -2.000000e+00  0  3024 0  1.328762e+01 4.350980e+00 -5.955782e-08   1.748141e-07 -2.638258e-08 -9.878874e-01 2.000000e-01  6.250000e-02  
-1.500000e+00  -1.000000e+00  -1.750000e+00  0  3112 0  9.479587e+00 2.281394e-01 -4.056756e+00   1.283464e+00 7.960004e-01 4.411484e-02 2.000000e-01  6.250000e-02  
-1.250000e+00  -1.000000e+00  -2.000000e+00  0  3787 0  -9.606359e-01 7.005709e+00 -1.743320e-07   1.200623e-07 -8.779270e-08 1.799077e+00 2.000000e-01  6.250000e-02  
-1.250000e+00  -1.000000e+00  -1.750000e+00  0  3851 0  -5.145819e+00 4.690441e+00 -1.500599e+01   8.007035e-01 -3.967723e-01 2.586570e+00 2.000000e-01  6.250000e-02  
-1.000000e+00  -1.000000e+00  -2.000000e+00  0  3788 0  -8.546411e+00 -8.546411e+00 -1.800642e-08   1.696760e-08 -1.642029e-08 -1.651378e-08 2.000000e-01  6.250000e-02  
-1.000000e+00  -1.000000e+00  -1.750000e+00  0  3852 0  8.213288e+00 8.213288e+00 -1.341381e+01   -7.614008e-02 7.614007e-02 -8.597167e-09 2.000000e-01  6.250000e-02  
-7.500000e-01  -1.000000e+00  -2.000000e+00  0  3789 0  9.947607e-01 5.717151e+00 -5.015237e-09   -1.350022e-08 7.584159e-10 1.356886e+00 2.000000e-01  6.250000e-02  
-7.500000e-01  -1.000000e+00  -1.750000e+00  0  3853 0  -3.690884e+00 1.594263e+01 -1.254345e+01   -1.741675e-01 -4.094783e-01 4.844264e-01 2.000000e-01  6.250000e-02  
-5.000000e-01  -1.000000e+00  -2.000000e+00  0  3790 0  -5.537618e-01 5.550202e-01 7.804573e-10   1.403301e-09 -5.674326e-09 9.852890e-01 2.000000e-01  6.250000e-02  
-5.000000e-01  -1.000000e+00  -1.750000e+00  0  3854 0  -5.235298e+00 -5.782188e+00 -1.293825e+01   5.093094e-01 -2.483059e-01 4.902206e-01 2.000000e-01  6.250000e-02  
-2.500000e-01  -1.000000e+00  -2.000000e+00  0  3791 0  -9.101557e-01 -5.012750e-01 4.053446e-09   -4.632356e-10 -2.309245e-10 -3.335176e-01 2.000000e-01  6.250000e-02  
-2.500000e-01  -1.000000e+00  -1.750000e+00  0  3855 0  7.669679e+00 4.212797e+00 -9.745604e+00   8.237318e-01 -2.187331e-01 -4.660114e-01 2.000000e-01  6.250000e-02  
0.000000e+00  -1.000000e+00  -2.000000e+00  0  3792 0  4.926506e-10 -1.323287e+00 -5.454203e-09   -9.173456e-10 9.508339e-11 2.654871e-09 2.000000e-01  6.250000e-02  
0.000000e+00  -1.000000e+00  -1.750000e+00  0  3856 0  2.965909e-09 5.085487e+00 -1.368717e+01   8.680815e-01 6.832910e-09 1.446372e-09 2.000000e-01  6.250000e-02  
-1.750000e+00  -7.500000e-01  -2.000000e+00  0  3034 0  -1.816197e+01 -3.975957e+00 -6.000267e-07   2.794239e-08 2.113914e-07 -1.615962e+00 2.000000e-01  6.250000e-02  
-2.000000e+00  -7.500000e-01  -2.000000e+00  0  3033 0  2.600139e-07 -1.931974e+01 1.538967e-07   2.744631e-08 -1.534752e-10 -4.657048e-08 2.000000e-01  6.250000e-02  
-1.750000e+00  -7.500000e-01  -1.750000e+00  0  3122 0  -4.426281e+00 -1.818797e+01 -4.426281e+00   1.001606e+00 -5.114316e-08 -1.001606e+00 2.000000e-01  6.250000e-02  
-2.000000e+00  -7.500000e-01  -1.750000e+00  0  3121 0  -9.941576e-07 -3.975958e+00 -1.816197e+01   1.615962e+00 -3.425818e-07 -4.681514e-08 2.000000e-01  6.250000e-02  
-1.500000e+00  -7.500000e-01  -2.000000e+00  0  3035 0  2.655320e+00 -6.452034e+00 2.315051e-07   -3.664092e-10 8.711766e-09 1.766328e-01 2.000000e-01  6.250000e-02  
-1.500000e+00  -7.500000e-01  -1.750000e+00  0  3123 0  2.148396e+01 -1.451409e+01 -1.068424e+01   7.228579e-01 1.745699e-01 -4.521982e-01 2.000000e-01  6.250000e-02  
-1.250000e+00  -7.500000e-01  -2.000000e+00  0  3795 0  -4.669339e+00 -1.424087e+01 -7.256795e-08   -2.237318e-08 8.752060e-09 3.799826e-01 2.000000e-01  6.250000e-02  
-1.250000e+00  -7.500000e-01  -1.750000e+00  0  3859 0  -6.351335e+00 -5.304710e+00 -1.818639e+01   9.634999e-01 -7.854592e-01 4.415547e-01 2.000000e-01  6.250000e-02  
-1.000000e+00  -7.500000e-01  -2.000000e+00  0  3796 0  5.717151e+00 9.947608e-01 -3.424442e-09   -9.832133e-10 1.379167e-08 -1.356886e+00 2.000000e-01  6.250000e-02  
-1.000000e+00  -7.500000e-01  -1.750000e+00  0  3860 0  1.594263e+01 -3.690884e+00 -1.254345e+01   4.094783e-01 1.741675e-01 -4.844264e-01 2.000000e-01  6.250000e-02  
-7.500000e-01  -7.500000e-01  -2.000000e+00  0  3797 0  -5.957445e+00 -5.957445e+00 5.573771e-08   1.075917e-08 -1.081805e-08 1.853278e-09 2.000000e-01  6.250000e-02  
-7.500000e-01  -7.500000e-01  -1.750000e+00  0  3861 0  -7.672627e+00 -7.672627e+00 -7.974153e+00   3.091736e-01 -3.091736e-01 1.510433e-09 2.000000e-01  6.250000e-02  
-5.000000e-01  -7.500000e-01  -2.000000e+00  0  3798 0  -2.780145e+00 -2.671052e+00 -1.317289e-08   3.792383e-09 -4.756525e-09 1.145207e-01 2.000000e-01  6.250000e-02  
-5.000000e-01  -7.500000e-01  -1.750000e+00  0  3862 0  1.201737e+00 -5.044143e+00 -1.732581e+01   6.010985e-01 -2.741935e-01 4.322299e-01 2.000000e-01  6.250000e-02  
-2.500000e-01  -7.500000e-01  -2.000000e+00  0  3799 0  2.977041e-01 9.095972e-01 -1.108286e-09   5.282395e-10 6.813725e-10 -2.453439e-01 2.000000e-01  6.250000e-02  
-2.500000e-01  -7.500000e-01  -1.750000e+00  0  3863 0  3.093459e+00 -4.126335e+00 -1.274833e+01   4.805395e-01 -1.341760e-01 -1.880237e-01 2.000000e-01  6.250000e-02  
0.000000e+00  -7.500000e-01  -2.000000e+00  0  3800 0  -3.942717e-09 -8.174965e-03 1.554149e-09   5.759519e-10 1.139758e-11 2.212208e-09 2.000000e-01  6.250000e-02  
0.000000e+00  -7.500000e-01  -1.750000e+00  0  3864 0  -7.294002e-09 -9.754641e+00 -1.765546e+01   4.268063e-01 1.498615e-09 1.652357e-09 2.000000e-01  6.250000e-02  
-1.750000e+00  -5.000000e-01  -2.000000e+00  0  3045 0  -3.391850e+00 -4.206527e+00 -1.221571e-06   -2.933573e-09 8.978322e-08 -8.041664e-01 2.000000e-01  6.250000e-02  
-2.000000e+00  -5.000000e-01  -2.000000e+00  0  3044 0  3.132608e-08 -1.470722e+01 2.171917e-08   3.833818e-08 1.299466e-10 -6.661560e-08 2.000000e-01  6.250000e-02  
-1.750000e+00  -5.000000e-01  -1.750000e+00  0  3133 0  -1.516257e+01 -2.350762e+00 -1.516257e+01   7.102949e-01 -2.112674e-08 -7.102949e-01 2.000000e-01  6.250000e-02  
-2.000000e+00  -5.000000e-01  -1.750000e+00  0  3132 0  -1.963152e-06 -4.206527e+00 -3.391850e+00   8.041665e-01 -1.453229e-07 2.173312e-09 2.000000e-01  6.250000e-02  
-1.500000e+00  -5.000000e-01  -2.000000e+00  0  3046 0  9.872002e+00 -4.334520e+00 3.968380e-07   -1.814844e-08 -7.942148e-09 9.444686e-01 2.000000e-01  6.250000e-02  
-1.500000e+00  -5.000000e-01  -1.750000e+00  0  3134 0  2.171561e+01 4.201681e+00 -1.287935e+01   7.124293e-01 6.069296e-01 7.093262e-01 2.000000e-01  6.250000e-02  
-1.250000e+00  -5.000000e-01  -2.000000e+00  0  3803 0  2.548489e+00 -7.984502e+00 -4.098699e-08   6.963571e-09 -2.982166e-09 -1.385644e-01 2.000000e-01  6.250000e-02  
-1.250000e+00  -5.000000e-01  -1.750000e+00  0  3867 0  -7.153269e+00 1.512653e+00 -1.525589e+01   6.408684e-01 -8.534363e-01 1.303733e-01 2.000000e-01  6.250000e-02  
-1.000000e+00  -5.000000e-01  -2.000000e+00  0  3804 0  5.550202e-01 -5.537618e-01 2.188606e-09   5.615062e-09 -1.331664e-09 -9.852891e-01 2.000000e-01  6.250000e-02  
-1.000000e+00  -5.000000e-01  -1.750000e+00  0  3868 0  -5.782188e+00 -5.235298e+00 -1.293825e+01   2.483059e-01 -5.093094e-01 -4.902206e-01 2.000000e-01  6.250000e-02  
-7.500000e-01  -5.000000e-01  -2.000000e+00  0  3805 0  -2.671052e+00 -2.780145e+00 -1.394179e-08   4.772513e-09 -3.892026e-09 -1.145206e-01 2.000000e-01  6.250000e-02  
-7.500000e-01  -5.000000e-01  -1.750000e+00  0  3869 0  -5.044143e+00 1.201737e+00 -1.732581e+01   2.741935e-01 -6.010985e-01 -4.322299e-01 2.000000e-01  6.250000e-02  
-5.000000e-01  -5.000000e-01  -2.000000e+00  0  3806 0  -1.626845e+00 -1.626845e+00 4.738028e-09   1.238984e-09 -1.186128e-09 -1.885064e-10 2.000000e-01  6.250000e-02  
-5.000000e-01  -5.000000e-01  -1.750000e+00  0  3870 0  2.412931e+00 2.412931e+00 -2.248339e+01   3.651567e-01 -3.651567e-01 -1.470511e-10 2.000000e-01  6.250000e-02  
-2.500000e-01  -5.000000e-01  -2.000000e+00  0  3807 0  -1.628271e-01 -2.409680e+00 8.194945e-10   -4.482442e-10 5.881517e-10 -1.715265e-01 2.000000e-01  6.250000e-02  
-2.500000e-01  -5.000000e-01  -1.750000e+00  0  3871 0  2.849540e+00 -5.951791e+00 -1.602046e+01   2.006606e-01 -9.669615e-02 -2.080174e-01 2.000000e-01  6.250000e-02  
0.000000e+00  -5.000000e-01  -2.000000e+00  0  3808 0  2.170377e-09 -3.541409e+00 7.599304e-10   1.722689e-10 -6.048245e-12 -3.375527e-10 2.000000e-01  6.250000e-02  
0.000000e+00  -5.000000e-01  -1.750000e+00  0  3872 0  1.591468e-09 4.176404e+00 -2.027416e+01   1.960846e-01 1.220243e-10 -1.092503e-10 2.000000e-01  6.250000e-02  
-1.750000e+00  -2.500000e-01  -2.000000e+00  0  3056 0  -1.724758e+01 -1.284908e-01 2.403011e-07   -1.145950e-09 4.445094e-08 -3.121949e-01 2.000000e-01  6.250000e-02  
-2.000000e+00  -2.500000e-01  -2.000000e+00  0  3055 0  -9.492682e-07 3.891971e+00 -5.856501e-07   5.448551e-09 4.768118e-10 -1.067163e-08 2.000000e-01  6.250000e-02  
-1.750000e+00  -2.500000e-01  -1.750000e+00  0  3144 0  -2.329007e-01 2.098703e+01 -2.329004e-01   3.877699e-01 -1.746408e-08 -3.877699e-01 2.000000e-01  6.250000e-02  
-2.000000e+00  -2.500000e-01  -1.750000e+00  0  3143 0  3.880099e-07 -1.284910e-01 -1.724758e+01   3.121949e-01 -7.271071e-08 -1.488919e-10 2.000000e-01  6.250000e-02  
-1.500000e+00  -2.500000e-01  -2.000000e+00  0  3057 0  7.617636e+00 1.030704e+00 -8.667975e-08   -8.061092e-09 1.506785e-08 7.788968e-01 2.000000e-01  6.250000e-02  
-1.500000e+00  -2.500000e-01  -1.750000e+00  0  3145 0  1.615728e+01 -2.922481e+00 -4.686087e+00   4.559075e-01 6.473482e-01 8.850522e-01 2.000000e-01  6.250000e-02  
-1.250000e+00  -2.500000e-01  -2.000000e+00  0  3811 0  -1.568410e+00 2.507287e+00 -1.078785e-08   -4.028802e-09 -2.517317e-10 1.612549e-01 2.000000e-01  6.250000e-02  
-1.250000e+00  -2.500000e-01  -1.750000e+00  0  3875 0  -5.978062e+00 1.150865e+00 -1.575092e+01   3.776735e-01 -9.694950e-01 2.467390e-01 2.000000e-01  6.250000e-02  
-1.000000e+00  -2.500000e-01  -2.000000e+00  0  3812 0  -5.012750e-01 -9.101558e-01 3.308386e-09   3.292180e-10 5.125669e-10 3.335176e-01 2.000000e-01  6.250000e-02  
-1.000000e+00  -2.500000e-01  -1.750000e+00  0  3876 0  4.212797e+00 7.669679e+00 -9.745604e+00   2.187331e-01 -8.237318e-01 4.660113e-01 2.000000e-01  6.250000e-02  
-7.500000e-01  -2.500000e-01  -2.000000e+00  0  3813 0  9.095972e-01 2.977041e-01 -1.263676e-09   -5.401911e-10 -6.342405e-10 2.453439e-01 2.000000e-01  6.250000e-02  
-7.500000e-01  -2.500000e-01  -1.750000e+00  0  3877 0  -4.126335e+00 3.093459e+00 -1.274833e+01   1.341760e-01 -4.805395e-01 1.880237e-01 2.000000e-01  6.250000e-02  
-5.000000e-01  -2.500000e-01  -2.000000e+00  0  3814 0  -2.409680e+00 -1.628271e-01 1.113354e-09   -4.113731e-10 4.217598e-10 1.715265e-01 2.000000e-01  6.250000e-02  
-5.000000e-01  -2.500000e-01  -1.750000e+00  0  3878 0  -5.951791e+00 2.849540e+00 -1.602046e+01   9.669615e-02 -2.006606e-01 2.080174e-01 2.000000e-01  6.250000e-02  
-2.500000e-01  -2.500000e-01  -2.000000e+00  0  3815 0  4.292397e-01 4.292397e-01 1.868087e-10   -1.465639e-11 1.196894e-10 -4.717740e-11 2.000000e-01  6.250000e-02  
-2.500000e-01  -2.500000e-01  -1.750000e+00  0  3879 0  2.855402e+00 2.855402e+00 -1.437929e+01   1.198192e-01 -1.198192e-01 9.261182e-11 2.000000e-01  6.250000e-02  
0.000000e+00  -2.500000e-01  -2.000000e+00  0  3816 0  -4.415122e-11 -2.225721e-01 1.540034e-09   5.989478e-11 2.318970e-11 1.352995e-10 2.000000e-01  6.250000e-02  
0.000000e+00  -2.500000e-01  -1.750000e+00  0  3880 0  -2.257344e-11 3.506996e+00 -1.579769e+01   1.840091e-01 -2.085761e-12 6.608089e-11 2.000000e-01  6.250000e-02  
-1.750000e+00  0.000000e+00  -2.000000e+00  0  3067 0  -2.319743e+00 1.482216e-06 1.223099e-07   -3.641659e-11 1.939090e-08 7.924378e-07 2.000000e-01  6.250000e-02  
-2.000000e+00  0.000000e+00  -2.000000e+00  0  3066 0  -1.400386e-06 -3.338949e-07 -8.594196e-07   3.673494e-10 5.936903e-10 -1.127423e-09 2.000000e-01  6.250000e-02  
-1.750000e+00  0.000000e+00  -1.750000e+00  0  3155 0  -1.764734e+01 -3.472162e-06 -1.764734e+01   -5.709493e-07 -2.449834e-08 5.706383e-07 2.000000e-01  6.250000e-02  
-2.000000e+00  0.000000e+00  -1.750000e+00  0  3154 0  1.913603e-07 1.480105e-06 -2.319743e+00   -7.931596e-07 -3.298695e-08 -3.933115e-10 2.000000e-01  6.250000e-02  
-1.500000e+00  0.000000e+00  -2.000000e+00  0  3068 0  7.656192e+00 -6.865168e-08 -1.690757e-07   1.005428e-11 2.648300e-08 2.363661e-07 2.000000e-01  6.250000e-02  
-1.500000e+00  0.000000e+00  -1.750000e+00  0  3156 0  2.251002e+01 5.288773e-07 -1.321126e+01   -1.634283e-07 5.486302e-01 1.702174e-07 2.000000e-01  6.250000e-02  
-1.250000e+00  0.000000e+00  -2.000000e+00  0  3819 0  3.160910e+00 1.095258e-07 1.900077e-08   4.803333e-11 -4.604068e-09 2.967886e-08 2.000000e-01  6.250000e-02  
-1.250000e+00  0.000000e+00  -1.750000e+00  0  3883 0  -8.835873e+00 -1.044954e-07 -1.615309e+01   6.947784e-09 -9.841827e-01 2.204922e-08 2.000000e-01  6.250000e-02  
-1.000000e+00  0.000000e+00  -2.000000e+00  0  3820 0  -1.323287e+00 5.311494e-10 -4.780910e-09   -4.737938e-11 1.006757e-09 -1.888750e-09 2.000000e-01  6.250000e-02  
-1.000000e+00  0.000000e+00  -1.750000e+00  0  3884 0  5.085487e+00 1.554023e-09 -1.368717e+01   -5.066794e-09 -8.680815e-01 -1.021944e-09 2.000000e-01  6.250000e-02  
-7.500000e-01  0.000000e+00  -2.000000e+00  0  3821 0  -8.174965e-03 -2.736014e-10 8.250520e-10   2.714778e-11 -6.480987e-10 -1.301428e-09 2.000000e-01  6.250000e-02  
-7.500000e-01  0.000000e+00  -1.750000e+00  0  3885 0  -9.754641e+00 -5.953643e-09 -1.765546e+01   -1.164121e-09 -4.268063e-01 -1.125226e-09 2.000000e-01  6.250000e-02  
-5.000000e-01  0.000000e+00  -2.000000e+00  0  3822 0  -3.541409e+00 -1.055232e-09 6.344012e-10   1.464565e-11 -1.696873e-10 1.736547e-10 2.000000e-01  6.250000e-02  
-5.000000e-01  0.000000e+00  -1.750000e+00  0  3886 0  4.176404e+00 1.860853e-09 -2.027416e+01   -8.078593e-11 -1.960846e-01 3.528000e-11 2.000000e-01  6.250000e-02  
-2.500000e-01  0.000000e+00  -2.000000e+00  0  3823 0  -2.225721e-01 1.623663e-09 1.232011e-09   -1.007727e-10 8.208351e-12 -2.496028e-11 2.000000e-01  6.250000e-02  
-2.500000e-01  0.000000e+00  -1.750000e+00  0  3887 0  3.506996e+00 -2.312944e-11 -1.579769e+01   -8.145004e-11 -1.840091e-01 3.683720e-11 2.000000e-01  6.250000e-02  
0.000000e+00  0.000000e+00  -2.000000e+00  0  3824 0  -1.393629e-10 -1.362900e-09 1.107440e-09   3.225603e-11 -1.138329e-10 1.828645e-10 2.000000e-01  6.250000e-02  
0.000000e+00  0.000000e+00  -1.750000e+00  0  3888 0  2.284904e-10 -1.425854e-10 -1.919194e+01   1.766294e-10 -1.763128e-10 7.695199e-11 2.000000e-01  6.250000e-02  
-2.000000e+00  -2.000000e+00  -1.500000e+00  0  1306 0  -1.366053e-05 -9.523350e-06 -8.860861e+00   -1.424308e-06 1.924872e-06 7.521769e-09 2.000000e-01  6.250000e-02  
-1.750000e+00  -2.000000e+00  -1.500000e+00  0  1307 0  -5.917863e+00 -1.338584e-06 1.519630e+01   1.539358e-08 -1.647542e+00 -2.124596e-07 2.000000e-01  6.250000e-02  
-1.750000e+00  -1.750000e+00  -1.500000e+00  0  1318 0  -1.626667e+01 -1.626667e+01 9.611979e-01   2.103218e+00 -2.103218e+00 5.234543e-08 2.000000e-01  6.250000e-02  
-2.000000e+00  -1.750000e+00  -1.500000e+00  0  1317 0  -1.833490e-06 -5.917859e+00 1.519629e+01   1.647542e+00 -2.441963e-08 3.063042e-07 2.000000e-01  6.250000e-02  
-1.500000e+00  -2.000000e+00  -1.500000e+00  0  1308 0  2.292441e+00 -4.755863e-07 2.292441e+00   6.851536e-07 -6.684664e-09 -6.869838e-07 2.000000e-01  6.250000e-02  
-1.500000e+00  -1.750000e+00  -1.500000e+00  0  1319 0  5.873096e+00 -1.848965e+01 5.873097e+00   2.169619e+00 1.902577e-07 -2.169619e+00 2.000000e-01  6.250000e-02  
-1.250000e+00  -2.000000e+00  -1.500000e+00  0  2275 0  -6.933286e+00 -1.547018e-06 5.954007e+00   -8.999634e-08 8.810851e-01 2.503539e-07 2.000000e-01  6.250000e-02  
-1.250000e+00  -1.750000e+00  -1.500000e+00  0  2283 0  -2.896820e+00 -1.320086e+01 1.006052e+01   1.745500e+00 1.304701e+00 1.292825e+00 2.000000e-01  6.250000e-02  
-1.000000e+00  -2.000000e+00  -1.500000e+00  0  2276 0  4.350979e+00 -6.239768e-08 1.328762e+01   -2.829329e-08 -9.878878e-01 2.009832e-07 2.000000e-01  6.250000e-02  
-1.000000e+00  -1.750000e+00  -1.500000e+00  0  2284 0  2.281404e-01 -4.056756e+00 9.479586e+00   7.960005e-01 4.411452e-02 1.283464e+00 2.000000e-01  6.250000e-02  
-7.500000e-01  -2.000000e+00  -1.500000e+00  0  2277 0  -6.452034e+00 2.633997e-07 2.655320e+00   1.061426e-08 1.766329e-01 -9.510051e-10 2.000000e-01  6.250000e-02  
-7.500000e-01  -1.750000e+00  -1.500000e+00  0  2285 0  -1.451409e+01 -1.068424e+01 2.148396e+01   1.745700e-01 -4.521981e-01 7.228578e-01 2.000000e-01  6.250000e-02  
-5.000000e-01  -2.000000e+00  -1.500000e+00  0  2278 0  -4.334518e+00 4.621614e-07 9.872002e+00   -8.572215e-09 9.444689e-01 -2.332791e-08 2.000000e-01  6.250000e-02  
-5.000000e-01  -1.750000e+00  -1.500000e+00  0  2286 0  4.201681e+00 -1.287935e+01 2.171561e+01   6.069296e-01 7.093265e-01 7.124291e-01 2.000000e-01  6.250000e-02  