VARIABLES="X", "Y", "Z", "Maximum Refinment Level", "Temp_ID", "Thread","Ex (corner node)","Ey (corner node)","Ez (corner node)","Bx (center node)","By (center node)","Bz (center node)", "Local Time Step" , "log10(Local Particle Weight)" 
ZONE N=4913, E=4096, DATAPACKING=POINT, ZONETYPE=FEBRICK
-2.000000e+00  -2.000000e+00  -2.000000e+00  0  1064 0  1.426235e-04 -1.163048e-04 4.236608e-05   2.801690e-08 9.634502e-09 -3.539262e-06 2.000000e-01  6.250000e-02  
-1.750000e+00  -2.000000e+00  -2.000000e+00  0  1065 0  5.362093e-02 -7.090960e-01 -4.336551e-05   -5.468604e-08 -3.465711e-06 4.755840e-01 2.000000e-01  6.250000e-02  
-1.750000e+00  -1.750000e+00  -2.000000e+00  0  1076 0  -3.535155e+00 -3.535122e+00 3.756589e-05   1.261111e-06 -1.272652e-06 -3.067643e-05 2.000000e-01  6.250000e-02  
-2.000000e+00  -1.750000e+00  -2.000000e+00  0  1075 0  -7.091203e-01 5.317295e-02 -4.321686e-05   3.660791e-06 7.087215e-08 -4.756515e-01 2.000000e-01  6.250000e-02  
-2.000000e+00  -2.000000e+00  -1.750000e+00  0  1185 0  -9.817690e-05 6.394105e-06 4.139129e+00   2.024967e-05 4.976327e-05 -1.335586e-06 2.000000e-01  6.250000e-02  
-1.750000e+00  -2.000000e+00  -1.750000e+00  0  1186 0  -5.328612e+00 -3.471843e+00 -2.654133e-01   -4.450737e-01 9.064059e-02 -4.793395e-02 2.000000e-01  6.250000e-02  
-1.750000e+00  -1.750000e+00  -1.750000e+00  0  1197 0  -5.398321e+00 -5.398253e+00 -4.876126e+00   -4.183677e-01 4.184009e-01 -2.149643e-05 2.000000e-01  6.250000e-02  
-2.000000e+00  -1.750000e+00  -1.750000e+00  0  1196 0  -3.471816e+00 -5.328619e+00 -2.654784e-01   -9.058546e-02 4.451295e-01 4.789141e-02 2.000000e-01  6.250000e-02  
-1.500000e+00  -2.000000e+00  -2.000000e+00  0  1066 0  9.498052e+00 1.021846e+00 1.832879e-05   1.420649e-06 -2.369195e-06 2.529617e-01 2.000000e-01  6.250000e-02  
-1.500000e+00  -1.750000e+00  -2.000000e+00  0  1077 0  4.819615e+00 2.345714e+00 -2.713836e-05   -6.345706e-06 2.035277e-06 -8.552421e-01 2.000000e-01  6.250000e-02  
-1.500000e+00  -2.000000e+00  -1.750000e+00  0  1187 0  4.612092e+00 2.800012e-01 3.264933e+00   -3.291580e-01 1.810839e+00 -1.071128e-01 2.000000e-01  6.250000e-02  
-1.500000e+00  -1.750000e+00  -1.750000e+00  0  1198 0  4.488052e+00 3.298252e+00 2.345931e+00   -2.718842e-01 2.127213e+00 -8.781938e-01 2.000000e-01  6.250000e-02  
-1.250000e+00  -2.000000e+00  -2.000000e+00  0  2099 0  9.399510e+00 2.031441e+00 -1.398762e-05   -8.505469e-07 5.417386e-06 3.173557e-01 2.000000e-01  6.250000e-02  
-1.250000e+00  -1.750000e+00  -2.000000e+00  0  2107 0  -4.924136e+00 -3.287129e+00 1.288559e-05   -6.912366e-06 2.060199e-06 -5.306764e-02 2.000000e-01  6.250000e-02  
-1.250000e+00  -2.000000e+00  -1.750000e+00  0  2187 0  -3.446471e+00 -7.999159e-03 -2.172478e+00   -4.895477e-01 4.070212e-01 2.196762e-01 2.000000e-01  6.250000e-02  
-1.250000e+00  -1.750000e+00  -1.750000e+00  0  2195 0  -1.031944e+01 4.639616e+00 3.769964e+00   2.614368e-02 6.672878e-01 -2.866399e-01 2.000000e-01  6.250000e-02  
-1.000000e+00  -2.000000e+00  -2.000000e+00  0  2100 0  7.181472e+00 3.075828e-01 -3.409492e-05   -7.971764e-07 -1.385611e-06 1.312673e-01 2.000000e-01  6.250000e-02  
-1.000000e+00  -1.750000e+00  -2.000000e+00  0  2108 0  -9.402645e-01 6.476541e+00 1.460296e-05   -1.119528e-06 1.620778e-06 -2.885595e-01 2.000000e-01  6.250000e-02  
-1.000000e+00  -2.000000e+00  -1.750000e+00  0  2188 0  -4.128886e+00 -1.127151e+00 4.356672e+00   -3.349641e-01 -3.789711e-02 1.217570e-02 2.000000e-01  6.250000e-02  
-1.000000e+00  -1.750000e+00  -1.750000e+00  0  2196 0  -3.766102e-01 3.060419e+00 2.441330e+00   4.157889e-01 8.828879e-02 -7.689031e-01 2.000000e-01  6.250000e-02  
-7.500000e-01  -2.000000e+00  -2.000000e+00  0  2101 0  -7.802615e+00 2.038227e+00 2.730348e-05   1.384552e-06 2.703695e-06 -2.251257e-02 2.000000e-01  6.250000e-02  
-7.500000e-01  -1.750000e+00  -2.000000e+00  0  2109 0  6.744706e+00 1.075077e+01 1.915393e-05   -1.755817e-06 6.241792e-06 -1.343120e-01 2.000000e-01  6.250000e-02  
-7.500000e-01  -2.000000e+00  -1.750000e+00  0  2189 0  7.750946e+00 -1.219393e+00 9.708193e+00   1.060222e-01 1.183596e-01 -2.735138e-01 2.000000e-01  6.250000e-02  
-7.500000e-01  -1.750000e+00  -1.750000e+00  0  2197 0  -7.606143e+00 -2.203643e+00 -2.951423e+00   6.426814e-01 4.034022e-01 -3.629910e-01 2.000000e-01  6.250000e-02  
-5.000000e-01  -2.000000e+00  -2.000000e+00  0  2102 0  -2.764891e-01 -6.317469e+00 5.774371e-06   -1.788535e-07 4.985655e-06 4.876315e-01 2.000000e-01  6.250000e-02  
-5.000000e-01  -1.750000e+00  -2.000000e+00  0  2110 0  2.104863e+00 -1.223010e+00 -1.783342e-05   -3.187152e-06 1.115712e-05 1.261602e+00 2.000000e-01  6.250000e-02  
-5.000000e-01  -2.000000e+00  -1.750000e+00  0  2190 0  -1.193050e+00 1.884487e+00 3.979961e+00   4.157794e-01 -7.529363e-01 2.315723e-01 2.000000e-01  6.250000e-02  
-5.000000e-01  -1.750000e+00  -1.750000e+00  0  2198 0  2.111165e+00 -2.324264e+00 -3.907982e+00   5.509394e-01 -1.112184e-01 8.525586e-01 2.000000e-01  6.250000e-02  
-2.500000e-01  -2.000000e+00  -2.000000e+00  0  2103 0  8.145063e+00 1.235724e+00 -6.597853e-06   -9.760873e-07 3.021997e-06 -2.308888e-01 2.000000e-01  6.250000e-02  
-2.500000e-01  -1.750000e+00  -2.000000e+00  0  2111 0  -4.561593e+00 2.109428e+00 -3.054135e-06   -1.187925e-06 4.445299e-06 -1.935581e-02 2.000000e-01  6.250000e-02  
-2.500000e-01  -2.000000e+00  -1.750000e+00  0  2191 0  -3.573943e+00 1.277756e+00 8.129575e-01   2.654029e-01 1.624856e-01 2.116891e-03 2.000000e-01  6.250000e-02  
-2.500000e-01  -1.750000e+00  -1.750000e+00  0  2199 0  2.092943e+00 -4.761482e+00 -6.462674e+00   3.148467e-01 -6.654079e-01 9.853767e-01 2.000000e-01  6.250000e-02  
0.000000e+00  -2.000000e+00  -2.000000e+00  0  2104 0  -1.971624e-04 1.376484e-04 7.726612e-07   2.822765e-09 4.617896e-09 -6.646377e-01 2.000000e-01  6.250000e-02  
0.000000e+00  -1.750000e+00  -2.000000e+00  0  2112 0  9.080559e-01 -4.245177e+00 -1.348728e-05   1.026938e-06 -1.367782e-06 -6.280732e-01 2.000000e-01  6.250000e-02  
0.000000e+00  -2.000000e+00  -1.750000e+00  0  2192 0  2.328112e-05 4.239730e-06 -4.960294e+00   2.834013e-05 -1.629114e-05 -4.725857e-01 2.000000e-01  6.250000e-02  
0.000000e+00  -1.750000e+00  -1.750000e+00  0  2200 0  -1.860191e+00 4.366512e+00 4.950545e+00   -6.214129e-02 -2.369179e-01 -3.507089e-01 2.000000e-01  6.250000e-02  
-1.750000e+00  -1.500000e+00  -2.000000e+00  0  1087 0  2.345737e+00 4.819644e+00 -2.673074e-05   -1.958654e-06 6.240104e-06 8.552088e-01 2.000000e-01  6.250000e-02  
-2.000000e+00  -1.500000e+00  -2.000000e+00  0  1086 0  1.021913e+00 9.498187e+00 1.826127e-05   2.570602e-06 -1.366114e-06 -2.530244e-01 2.000000e-01  6.250000e-02  
-1.750000e+00  -1.500000e+00  -1.750000e+00  0  1208 0  3.298268e+00 4.488110e+00 2.345947e+00   -2.127210e+00 2.718999e-01 8.781700e-01 2.000000e-01  6.250000e-02  
-2.000000e+00  -1.500000e+00  -1.750000e+00  0  1207 0  2.800476e-01 4.612163e+00 3.264896e+00   -1.810818e+00 3.291757e-01 1.070918e-01 2.000000e-01  6.250000e-02  
-1.500000e+00  -1.500000e+00  -2.000000e+00  0  1088 0  -6.674427e+00 -6.674389e+00 -4.478452e-05   -1.208039e-05 1.198056e-05 -1.075534e-06 2.000000e-01  6.250000e-02  
-1.500000e+00  -1.500000e+00  -1.750000e+00  0  1209 0  -4.015390e+00 -4.015402e+00 2.018218e-01   -5.666243e-01 5.666280e-01 -1.852590e-06 2.000000e-01  6.250000e-02  
-1.250000e+00  -1.500000e+00  -2.000000e+00  0  2115 0  -1.261426e+00 2.168009e+00 -4.858109e-06   -9.287913e-07 3.269254e-06 -5.116384e-01 2.000000e-01  6.250000e-02  
-1.250000e+00  -1.500000e+00  -1.750000e+00  0  2203 0  3.471173e+00 -3.805180e+00 2.466131e+00   1.171221e+00 5.960415e-01 -6.591772e-01 2.000000e-01  6.250000e-02  
-1.000000e+00  -1.500000e+00  -2.000000e+00  0  2116 0  4.476481e+00 1.988361e+00 -3.692546e-06   6.615285e-06 2.991523e-06 7.651555e-01 2.000000e-01  6.250000e-02  
-1.000000e+00  -1.500000e+00  -1.750000e+00  0  2204 0  -2.314333e+00 -6.585759e+00 -8.250752e+00   5.214627e-01 5.087257e-01 1.537517e+00 2.000000e-01  6.250000e-02  
-7.500000e-01  -1.500000e+00  -2.000000e+00  0  2117 0  4.580357e+00 6.696501e+00 -1.051153e-05   2.119335e-06 4.143606e-06 2.544827e+00 2.000000e-01  6.250000e-02  
-7.500000e-01  -1.500000e+00  -1.750000e+00  0  2205 0  6.604863e+00 1.916162e+00 4.162462e+00   -8.699602e-01 9.200783e-01 2.708911e+00 2.000000e-01  6.250000e-02  
-5.000000e-01  -1.500000e+00  -2.000000e+00  0  2118 0  5.978311e+00 1.555205e+00 -2.541106e-05   -1.611697e-06 8.312989e-06 1.171782e+00 2.000000e-01  6.250000e-02  
-5.000000e-01  -1.500000e+00  -1.750000e+00  0  2206 0  -1.770257e+00 -6.347506e+00 5.997444e+00   -1.630144e-01 -2.765482e-01 6.788797e-01 2.000000e-01  6.250000e-02  
-2.500000e-01  -1.500000e+00  -2.000000e+00  0  2119 0  8.378343e+00 -1.614784e+00 -4.923064e-06   -2.122550e-07 1.993801e-06 1.382862e-02 2.000000e-01  6.250000e-02  
-2.500000e-01  -1.500000e+00  -1.750000e+00  0  2207 0  3.808458e+00 -4.880849e+00 5.285895e+00   2.259810e-01 -8.424582e-01 1.005203e-01 2.000000e-01  6.250000e-02  
0.000000e+00  -1.500000e+00  -2.000000e+00  0  2120 0  8.686823e-01 8.143269e-02 2.280308e-06   6.104227e-07 -1.743486e-06 -3.965079e-01 2.000000e-01  6.250000e-02  
0.000000e+00  -1.500000e+00  -1.750000e+00  0  2208 0  -1.935125e+00 -1.983446e-01 3.562986e+00   -7.643497e-01 -1.149587e-01 -3.428868e-01 2.000000e-01  6.250000e-02  
-1.750000e+00  -1.250000e+00  -2.000000e+00  0  3012 0  -3.287166e+00 -4.924079e+00 1.315131e-05   -1.947824e-06 6.920871e-06 5.305181e-02 2.000000e-01  6.250000e-02  
-2.000000e+00  -1.250000e+00  -2.000000e+00  0  3011 0  2.031236e+00 9.399355e+00 -1.361800e-05   -5.356280e-06 8.754619e-07 -3.173503e-01 2.000000e-01  6.250000e-02  
-1.750000e+00  -1.250000e+00  -1.750000e+00  0  3100 0  4.639605e+00 -1.031949e+01 3.769928e+00   -6.672842e-01 -2.614173e-02 2.866287e-01 2.000000e-01  6.250000e-02  
-2.000000e+00  -1.250000e+00  -1.750000e+00  0  3099 0  -8.001717e-03 -3.446430e+00 -2.172510e+00   -4.070046e-01 4.895445e-01 -2.196622e-01 2.000000e-01  6.250000e-02  
-1.500000e+00  -1.250000e+00  -2.000000e+00  0  3013 0  2.168009e+00 -1.261436e+00 -5.002874e-06   -3.284721e-06 8.472339e-07 5.116360e-01 2.000000e-01  6.250000e-02  
-1.500000e+00  -1.250000e+00  -1.750000e+00  0  3101 0  -3.805183e+00 3.471177e+00 2.466116e+00   -5.960380e-01 -1.171218e+00 6.591771e-01 2.000000e-01  6.250000e-02  
-1.250000e+00  -1.250000e+00  -2.000000e+00  0  3779 0  -1.427714e+00 -1.427707e+00 -8.375596e-06   1.354287e-06 -1.451303e-06 -2.488610e-06 2.000000e-01  6.250000e-02  
-1.250000e+00  -1.250000e+00  -1.750000e+00  0  3843 0  -6.130490e+00 -6.130478e+00 -8.296618e+00   1.025985e-01 -1.025990e-01 7.942612e-07 2.000000e-01  6.250000e-02  
-1.000000e+00  -1.250000e+00  -2.000000e+00  0  3780 0  -3.561116e-01 1.404072e+00 4.979819e-06   4.086756e-06 1.912129e-06 3.810210e-02 2.000000e-01  6.250000e-02  
-1.000000e+00  -1.250000e+00  -1.750000e+00  0  3844 0  -3.911201e+00 -4.390318e+00 -8.556478e-01   4.292111e-01 7.673023e-01 1.764813e-01 2.000000e-01  6.250000e-02  
-7.500000e-01  -1.250000e+00  -2.000000e+00  0  3781 0  5.595805e-02 -7.875880e+00 5.793114e-06   2.883613e-06 1.853106e-06 1.645720e+00 2.000000e-01  6.250000e-02  
-7.500000e-01  -1.250000e+00  -1.750000e+00  0  3845 0  1.032957e+00 1.073421e+00 -4.793079e-02   2.919420e-01 2.086244e+00 6.748544e-01 2.000000e-01  6.250000e-02  
-5.000000e-01  -1.250000e+00  -2.000000e+00  0  3782 0  -6.938137e+00 5.385869e+00 -5.213850e-06   8.937830e-07 2.564960e-06 1.225481e+00 2.000000e-01  6.250000e-02  
-5.000000e-01  -1.250000e+00  -1.750000e+00  0  3846 0  3.220496e-01 4.247387e-01 -4.890583e+00   -3.341831e-01 7.562907e-01 2.453537e-01 2.000000e-01  6.250000e-02  
-2.500000e-01  -1.250000e+00  -2.000000e+00  0  3783 0  9.436399e-01 1.665122e+00 4.584684e-07   3.697386e-07 4.492637e-07 1.094860e+00 2.000000e-01  6.250000e-02  
-2.500000e-01  -1.250000e+00  -1.750000e+00  0  3847 0  -4.470712e-01 -1.534769e+00 -4.477625e+00   -8.575936e-01 4.456441e-01 2.946778e-01 2.000000e-01  6.250000e-02  
0.000000e+00  -1.250000e+00  -2.000000e+00  0  3784 0  6.848844e-03 -1.091291e+01 -1.989345e-06   -5.167608e-07 -4.289185e-07 2.835047e-01 2.000000e-01  6.250000e-02  
0.000000e+00  -1.250000e+00  -1.750000e+00  0  3848 0  1.130382e+00 -7.586601e+00 1.878443e+00   -4.774986e-01 7.177043e-02 7.877841e-02 2.000000e-01  6.250000e-02  
-1.750000e+00  -1.000000e+00  -2.000000e+00  0  3023 0  6.476483e+00 -9.401683e-01 1.479296e-05   -1.663503e-06 1.120197e-06 2.885462e-01 2.000000e-01  6.250000e-02  
-2.000000e+00  -1.000000e+00  -2.000000e+00  0  3022 0  3.077464e-01 7.181336e+00 -3.432047e-05   1.357791e-06 7.156403e-07 -1.312716e-01 2.000000e-01  6.250000e-02  
-1.750000e+00  -1.000000e+00  -1.750000e+00  0  3111 0  3.060433e+00 -3.766340e-01 2.441323e+00   -8.828300e-02 -4.157884e-01 7.688915e-01 2.000000e-01  6.250000e-02  
-2.000000e+00  -1.000000e+00  -1.750000e+00  0  3110 0  -1.127174e+00 -4.128901e+00 4.356687e+00   3.791319e-02 3.349742e-01 -1.218357e-02 2.000000e-01  6.250000e-02  
-1.500000e+00  -1.000000e+00  -2.000000e+00  0  3024 0  1.988400e+00 4.476413e+00 -3.444965e-06   -2.973782e-06 -6.617962e-06 -7.651534e-01 2.000000e-01  6.250000e-02  
-1.500000e+00  -1.000000e+00  -1.750000e+00  0  3112 0  -6.585731e+00 -2.314303e+00 -8.250737e+00   -5.087235e-01 -5.214614e-01 -1.537517e+00 2.000000e-01  6.250000e-02  
-1.250000e+00  -1.000000e+00  -2.000000e+00  0  3787 0  1.404055e+00 -3.560971e-01 4.890392e-06   -1.896159e-06 -4.139967e-06 -3.810616e-02 2.000000e-01  6.250000e-02  
-1.250000e+00  -1.000000e+00  -1.750000e+00  0  3851 0  -4.390316e+00 -3.911208e+00 -8.556438e-01   -7.673012e-01 -4.292151e-01 -1.764822e-01 2.000000e-01  6.250000e-02  
-1.000000e+00  -1.000000e+00  -2.000000e+00  0  3788 0  4.733501e+00 4.733503e+00 2.993619e-06   -5.834967e-07 5.608327e-07 -3.952697e-07 2.000000e-01  6.250000e-02  
-1.000000e+00  -1.000000e+00  -1.750000e+00  0  3852 0  -1.811013e+00 -1.811010e+00 -6.234693e-01   -2.501620e-01 2.501609e-01 -1.029898e-06 2.000000e-01  6.250000e-02  
-7.500000e-01  -1.000000e+00  -2.000000e+00  0  3789 0  7.095831e+00 -5.058067e-01 3.707785e-06   -5.341933e-07 1.985855e-06 -2.550374e+00 2.000000e-01  6.250000e-02  
-7.500000e-01  -1.000000e+00  -1.750000e+00  0  3853 0  2.683767e+00 -1.196215e+00 2.485322e+00   5.236947e-01 2.902662e+00 -2.653749e+00 2.000000e-01  6.250000e-02  
-5.000000e-01  -1.000000e+00  -2.000000e+00  0  3790 0  4.500567e+00 -3.267863e+00 3.723536e-07   -7.506411e-07 2.157365e-08 -1.382097e+00 2.000000e-01  6.250000e-02  
-5.000000e-01  -1.000000e+00  -1.750000e+00  0  3854 0  1.071174e+00 5.292648e+00 9.180395e-02   7.288438e-01 1.994222e+00 -9.610977e-01 2.000000e-01  6.250000e-02  
-2.500000e-01  -1.000000e+00  -2.000000e+00  0  3791 0  1.197296e+01 -3.024432e+00 -6.686484e-07   -3.017430e-07 6.193171e-08 1.135031e+00 2.000000e-01  6.250000e-02  
-2.500000e-01  -1.000000e+00  -1.750000e+00  0  3855 0  7.521917e+00 4.734246e+00 -3.865311e-01   1.612704e+00 8.211483e-01 5.204594e-01 2.000000e-01  6.250000e-02  
0.000000e+00  -1.000000e+00  -2.000000e+00  0  3792 0  3.119081e+00 1.296724e+01 1.169949e-07   -1.910653e-07 1.722515e-07 1.664830e-01 2.000000e-01  6.250000e-02  
0.000000e+00  -1.000000e+00  -1.750000e+00  0  3856 0  -7.870279e-02 -4.879195e+00 -4.195279e+00   2.525069e+00 9.958609e-02 9.018331e-02 2.000000e-01  6.250000e-02  
-1.750000e+00  -7.500000e-01  -2.000000e+00  0  3034 0  1.075080e+01 6.744719e+00 1.906532e-05   -6.241316e-06 1.726527e-06 1.343077e-01 2.000000e-01  6.250000e-02  
-2.000000e+00  -7.500000e-01  -2.000000e+00  0  3033 0  2.038279e+00 -7.802751e+00 2.782769e-05   -2.709548e-06 -1.439191e-06 2.248896e-02 2.000000e-01  6.250000e-02  
-1.750000e+00  -7.500000e-01  -1.750000e+00  0  3122 0  -2.203674e+00 -7.606114e+00 -2.951444e+00   -4.034023e-01 -6.426792e-01 3.629879e-01 2.000000e-01  6.250000e-02  
-2.000000e+00  -7.500000e-01  -1.750000e+00  0  3121 0  -1.219371e+00 7.750994e+00 9.708207e+00   -1.183610e-01 -1.060114e-01 2.734974e-01 2.000000e-01  6.250000e-02  
-1.500000e+00  -7.500000e-01  -2.000000e+00  0  3035 0  6.696482e+00 4.580367e+00 -1.036800e-05   -4.101828e-06 -2.111816e-06 -2.544819e+00 2.000000e-01  6.250000e-02  
-1.500000e+00  -7.500000e-01  -1.750000e+00  0  3123 0  1.916171e+00 6.604882e+00 4.162481e+00   -9.200759e-01 8.699614e-01 -2.708905e+00 2.000000e-01  6.250000e-02  
-1.250000e+00  -7.500000e-01  -2.000000e+00  0  3795 0  -7.875889e+00 5.598527e-02 5.784431e-06   -1.815694e-06 -2.880558e-06 -1.645723e+00 2.000000e-01  6.250000e-02  
-1.250000e+00  -7.500000e-01  -1.750000e+00  0  3859 0  1.073424e+00 1.032944e+00 -4.792959e-02   -2.086241e+00 -2.919441e-01 -6.748572e-01 2.000000e-01  6.250000e-02  
-1.000000e+00  -7.500000e-01  -2.000000e+00  0  3796 0  -5.058031e-01 7.095828e+00 3.760388e-06   -1.992288e-06 5.227768e-07 2.550377e+00 2.000000e-01  6.250000e-02  
-1.000000e+00  -7.500000e-01  -1.750000e+00  0  3860 0  -1.196224e+00 2.683772e+00 2.485318e+00   -2.902661e+00 -5.236945e-01 2.653750e+00 2.000000e-01  6.250000e-02  
-7.500000e-01  -7.500000e-01  -2.000000e+00  0  3797 0  -2.403106e+00 -2.403099e+00 -1.579586e-06   -7.389859e-07 7.274326e-07 2.879787e-08 2.000000e-01  6.250000e-02  
-7.500000e-01  -7.500000e-01  -1.750000e+00  0  3861 0  -6.009251e+00 -6.009252e+00 -1.543241e+00   -1.754884e+00 1.754885e+00 8.509940e-07 2.000000e-01  6.250000e-02  
-5.000000e-01  -7.500000e-01  -2.000000e+00  0  3798 0  4.174722e+00 -2.568194e-01 7.005840e-08   2.567463e-08 -9.963548e-07 -6.419669e-01 2.000000e-01  6.250000e-02  
-5.000000e-01  -7.500000e-01  -1.750000e+00  0  3862 0  2.700454e-01 -4.285531e+00 -9.620081e-01   -6.428954e-01 1.513935e+00 -6.486643e-01 2.000000e-01  6.250000e-02  
-2.500000e-01  -7.500000e-01  -2.000000e+00  0  3799 0  -1.019884e+01 3.336235e+00 -5.057981e-07   -3.064263e-08 -7.458101e-07 1.102615e-01 2.000000e-01  6.250000e-02  
-2.500000e-01  -7.500000e-01  -1.750000e+00  0  3863 0  2.563569e+00 3.177834e+00 -9.477042e-01   1.026079e+00 -1.426556e-01 -7.982112e-01 2.000000e-01  6.250000e-02  
0.000000e+00  -7.500000e-01  -2.000000e+00  0  3800 0  8.608664e-01 -1.256009e+00 8.205082e-07   -8.236395e-08 -1.295423e-07 -3.242827e-01 2.000000e-01  6.250000e-02  
0.000000e+00  -7.500000e-01  -1.750000e+00  0  3864 0  8.161077e-01 -4.430422e-02 -4.709359e+00   2.544723e+00 1.097341e-01 -2.022904e-01 2.000000e-01  6.250000e-02  
-1.750000e+00  -5.000000e-01  -2.000000e+00  0  3045 0  -1.223044e+00 2.104829e+00 -1.789494e-05   -1.115512e-05 3.197049e-06 -1.261597e+00 2.000000e-01  6.250000e-02  
-2.000000e+00  -5.000000e-01  -2.000000e+00  0  3044 0  -6.317520e+00 -2.764896e-01 5.532388e-06   -4.996237e-06 1.875056e-07 -4.876298e-01 2.000000e-01  6.250000e-02  
-1.750000e+00  -5.000000e-01  -1.750000e+00  0  3133 0  -2.324204e+00 2.111220e+00 -3.907988e+00   1.112148e-01 -5.509384e-01 -8.525503e-01 2.000000e-01  6.250000e-02  
-2.000000e+00  -5.000000e-01  -1.750000e+00  0  3132 0  1.884419e+00 -1.193041e+00 3.979974e+00   7.529392e-01 -4.157724e-01 -2.315722e-01 2.000000e-01  6.250000e-02  
-1.500000e+00  -5.000000e-01  -2.000000e+00  0  3046 0  1.555210e+00 5.978352e+00 -2.557618e-05   -8.307644e-06 1.618849e-06 -1.171774e+00 2.000000e-01  6.250000e-02  
-1.500000e+00  -5.000000e-01  -1.750000e+00  0  3134 0  -6.347509e+00 -1.770287e+00 5.997423e+00   2.765401e-01 1.630132e-01 -6.788692e-01 2.000000e-01  6.250000e-02  
-1.250000e+00  -5.000000e-01  -2.000000e+00  0  3803 0  5.385874e+00 -6.938148e+00 -5.242640e-06   -2.560091e-06 -8.725735e-07 -1.225485e+00 2.000000e-01  6.250000e-02  
-1.250000e+00  -5.000000e-01  -1.750000e+00  0  3867 0  4.247506e-01 3.220507e-01 -4.890571e+00   -7.562954e-01 3.341790e-01 -2.453575e-01 2.000000e-01  6.250000e-02  
-1.000000e+00  -5.000000e-01  -2.000000e+00  0  3804 0  -3.267850e+00 4.500567e+00 4.895337e-07   -2.906456e-08 7.523887e-07 1.382094e+00 2.000000e-01  6.250000e-02  
-1.000000e+00  -5.000000e-01  -1.750000e+00  0  3868 0  5.292649e+00 1.071181e+00 9.180853e-02   -1.994223e+00 -7.288449e-01 9.610975e-01 2.000000e-01  6.250000e-02  
-7.500000e-01  -5.000000e-01  -2.000000e+00  0  3805 0  -2.568189e-01 4.174726e+00 6.042368e-08   9.928348e-07 -3.564384e-08 6.419661e-01 2.000000e-01  6.250000e-02  
-7.500000e-01  -5.000000e-01  -1.750000e+00  0  3869 0  -4.285527e+00 2.700437e-01 -9.620106e-01   -1.513936e+00 6.428951e-01 6.486638e-01 2.000000e-01  6.250000e-02  
-5.000000e-01  -5.000000e-01  -2.000000e+00  0  3806 0  -8.937787e+00 -8.937791e+00 -6.188564e-07   4.341410e-07 -4.300638e-07 -1.071168e-07 2.000000e-01  6.250000e-02  
-5.000000e-01  -5.000000e-01  -1.750000e+00  0  3870 0  -2.035255e+00 -2.035257e+00 7.712773e+00   -1.450291e+00 1.450291e+00 -2.301384e-07 2.000000e-01  6.250000e-02  
-2.500000e-01  -5.000000e-01  -2.000000e+00  0  3807 0  1.417969e+00 1.164169e+00 3.582035e-07   -4.787876e-08 -3.061139e-07 4.680990e-01 2.000000e-01  6.250000e-02  
-2.500000e-01  -5.000000e-01  -1.750000e+00  0  3871 0  5.849529e+00 2.136987e+00 1.443877e+00   -7.227403e-01 -7.077482e-01 -3.845195e-01 2.000000e-01  6.250000e-02  
0.000000e+00  -5.000000e-01  -2.000000e+00  0  3808 0  -1.478455e+00 -7.064991e+00 -7.606850e-07   -2.637686e-07 -2.934263e-08 3.817026e-02 2.000000e-01  6.250000e-02  
0.000000e+00  -5.000000e-01  -1.750000e+00  0  3872 0  -8.253781e-02 -1.764452e+00 1.206109e+00   5.067200e-02 -3.438513e-02 9.442520e-02 2.000000e-01  6.250000e-02  
-1.750000e+00  -2.500000e-01  -2.000000e+00  0  3056 0  2.109479e+00 -4.561616e+00 -3.072889e-06   -4.452051e-06 1.196638e-06 1.939073e-02 2.000000e-01  6.250000e-02  
-2.000000e+00  -2.500000e-01  -2.000000e+00  0  3055 0  1.235711e+00 8.145059e+00 -6.670943e-06   -3.033450e-06 9.921368e-07 2.308986e-01 2.000000e-01  6.250000e-02  
-1.750000e+00  -2.500000e-01  -1.750000e+00  0  3144 0  -4.761505e+00 2.093054e+00 -6.462697e+00   6.653940e-01 -3.148339e-01 -9.853487e-01 2.000000e-01  6.250000e-02  
-2.000000e+00  -2.500000e-01  -1.750000e+00  0  3143 0  1.277756e+00 -3.573941e+00 8.129863e-01   -1.624895e-01 -2.653816e-01 -2.111524e-03 2.000000e-01  6.250000e-02  
-1.500000e+00  -2.500000e-01  -2.000000e+00  0  3057 0  -1.614768e+00 8.378347e+00 -4.937959e-06   -2.004632e-06 2.086708e-07 -1.379636e-02 2.000000e-01  6.250000e-02  
-1.500000e+00  -2.500000e-01  -1.750000e+00  0  3145 0  -4.880853e+00 3.808454e+00 5.285899e+00   8.424440e-01 -2.259812e-01 -1.004957e-01 2.000000e-01  6.250000e-02  
-1.250000e+00  -2.500000e-01  -2.000000e+00  0  3811 0  1.665102e+00 9.436503e-01 4.985730e-07   -4.640078e-07 -3.667165e-07 -1.094863e+00 2.000000e-01  6.250000e-02  
-1.250000e+00  -2.500000e-01  -1.750000e+00  0  3875 0  -1.534780e+00 -4.470860e-01 -4.477625e+00   -4.456484e-01 8.575835e-01 -2.946844e-01 2.000000e-01  6.250000e-02  
-1.000000e+00  -2.500000e-01  -2.000000e+00  0  3812 0  -3.024429e+00 1.197296e+01 -6.454287e-07   -6.000460e-08 3.021806e-07 -1.135035e+00 2.000000e-01  6.250000e-02  
-1.000000e+00  -2.500000e-01  -1.750000e+00  0  3876 0  4.734244e+00 7.521925e+00 -3.865438e-01   -8.211479e-01 -1.612708e+00 -5.204609e-01 2.000000e-01  6.250000e-02  
-7.500000e-01  -2.500000e-01  -2.000000e+00  0  3813 0  3.336238e+00 -1.019884e+01 -4.951410e-07   7.535349e-07 2.388423e-08 -1.102619e-01 2.000000e-01  6.250000e-02  
-7.500000e-01  -2.500000e-01  -1.750000e+00  0  3877 0  3.177843e+00 2.563548e+00 -9.477121e-01   1.426550e-01 -1.026080e+00 7.982104e-01 2.000000e-01  6.250000e-02  
-5.000000e-01  -2.500000e-01  -2.000000e+00  0  3814 0  1.164166e+00 1.417980e+00 3.749511e-07   3.081924e-07 4.752824e-08 -4.680994e-01 2.000000e-01  6.250000e-02  
-5.000000e-01  -2.500000e-01  -1.750000e+00  0  3878 0  2.136984e+00 5.849531e+00 1.443876e+00   7.077478e-01 7.227405e-01 3.845189e-01 2.000000e-01  6.250000e-02  
-2.500000e-01  -2.500000e-01  -2.000000e+00  0  3815 0  -1.466040e+00 -1.466040e+00 -1.262446e-06   -1.008255e-07 1.014446e-07 1.042245e-06 2.000000e-01  6.250000e-02  
-2.500000e-01  -2.500000e-01  -1.750000e+00  0  3879 0  3.746183e+00 3.746183e+00 4.931047e+00   2.340567e-01 -2.340567e-01 7.361831e-07 2.000000e-01  6.250000e-02  
0.000000e+00  -2.500000e-01  -2.000000e+00  0  3816 0  -4.366094e-01 -2.582123e+00 1.849884e-07   7.477073e-09 9.561672e-08 1.446809e-01 2.000000e-01  6.250000e-02  
0.000000e+00  -2.500000e-01  -1.750000e+00  0  3880 0  3.425612e-01 -1.213962e-01 -5.210535e+00   -5.560537e-03 -1.804750e-01 7.964772e-02 2.000000e-01  6.250000e-02  
-1.750000e+00  0.000000e+00  -2.000000e+00  0  3067 0  -4.244895e+00 9.080418e-01 -1.350055e-05   1.371912e-06 -1.024005e-06 6.280915e-01 2.000000e-01  6.250000e-02  
-2.000000e+00  0.000000e+00  -2.000000e+00  0  3066 0  -6.953154e-06 2.202597e-05 7.799294e-07   7.812800e-09 1.955802e-10 6.646383e-01 2.000000e-01  6.250000e-02  
-1.750000e+00  0.000000e+00  -1.750000e+00  0  3155 0  4.366643e+00 -1.860111e+00 4.950629e+00   2.369083e-01 6.216497e-02 3.507205e-01 2.000000e-01  6.250000e-02  
-2.000000e+00  0.000000e+00  -1.750000e+00  0  3154 0  -2.246569e-05 -1.915865e-07 -4.960290e+00   -2.046252e-07 3.690467e-06 4.725858e-01 2.000000e-01  6.250000e-02  
-1.500000e+00  0.000000e+00  -2.000000e+00  0  3068 0  8.137611e-02 8.686851e-01 2.306147e-06   1.729680e-06 -6.165980e-07 3.965277e-01 2.000000e-01  6.250000e-02  
-1.500000e+00  0.000000e+00  -1.750000e+00  0  3156 0  -1.983407e-01 -1.935076e+00 3.562957e+00   1.149637e-01 7.643557e-01 3.428965e-01 2.000000e-01  6.250000e-02  
-1.250000e+00  0.000000e+00  -2.000000e+00  0  3819 0  -1.091291e+01 6.844799e-03 -1.978515e-06   4.087453e-07 5.071860e-07 -2.835050e-01 2.000000e-01  6.250000e-02  
-1.250000e+00  0.000000e+00  -1.750000e+00  0  3883 0  -7.586605e+00 1.130333e+00 1.878445e+00   -7.176008e-02 4.774945e-01 -7.878458e-02 2.000000e-01  6.250000e-02  
-1.000000e+00  0.000000e+00  -2.000000e+00  0  3820 0  1.296724e+01 3.119081e+00 1.359309e-07   -1.815437e-07 1.891247e-07 -1.664856e-01 2.000000e-01  6.250000e-02  
-1.000000e+00  0.000000e+00  -1.750000e+00  0  3884 0  -4.879201e+00 -7.868181e-02 -4.195281e+00   -9.958303e-02 -2.525073e+00 -9.018309e-02 2.000000e-01  6.250000e-02  
-7.500000e-01  0.000000e+00  -2.000000e+00  0  3821 0  -1.256012e+00 8.608680e-01 8.310502e-07   1.326289e-07 8.018935e-08 3.242828e-01 2.000000e-01  6.250000e-02  
-7.500000e-01  0.000000e+00  -1.750000e+00  0  3885 0  -4.429933e-02 8.160992e-01 -4.709361e+00   -1.097358e-01 -2.544723e+00 2.022900e-01 2.000000e-01  6.250000e-02  
-5.000000e-01  0.000000e+00  -2.000000e+00  0  3822 0  -7.064998e+00 -1.478456e+00 -7.464012e-07   3.212930e-08 2.580421e-07 -3.817205e-02 2.000000e-01  6.250000e-02  
-5.000000e-01  0.000000e+00  -1.750000e+00  0  3886 0  -1.764450e+00 -8.253319e-02 1.206109e+00   3.438335e-02 -5.067146e-02 -9.442673e-02 2.000000e-01  6.250000e-02  
-2.500000e-01  0.000000e+00  -2.000000e+00  0  3823 0  -2.582123e+00 -4.366074e-01 1.736459e-07   -9.387329e-08 -8.762419e-09 -1.446802e-01 2.000000e-01  6.250000e-02  
-2.500000e-01  0.000000e+00  -1.750000e+00  0  3887 0  -1.213956e-01 3.425606e-01 -5.210535e+00   1.804735e-01 5.560192e-03 -7.964721e-02 2.000000e-01  6.250000e-02  
0.000000e+00  0.000000e+00  -2.000000e+00  0  3824 0  2.248907e-06 -2.725659e-07 -1.714066e-06   2.864168e-09 1.072396e-09 1.787978e-08 2.000000e-01  6.250000e-02  
0.000000e+00  0.000000e+00  -1.750000e+00  0  3888 0  -5.271169e-07 2.025454e-07 -1.078326e+00   -5.276571e-08 -5.824727e-07 6.559434e-09 2.000000e-01  6.250000e-02  
-2.000000e+00  -2.000000e+00  -1.500000e+00  0  1306 0  1.616258e-05 -2.180526e-05 8.165307e+00   1.070244e-05 3.553000e-05 6.930010e-07 2.000000e-01  6.250000e-02  
-1.750000e+00  -2.000000e+00  -1.500000e+00  0  1307 0  2.790908e+00 8.285683e-01 3.711328e+00   5.008667e-02 -1.573869e+00 -6.336581e-01 2.000000e-01  6.250000e-02  
-1.750000e+00  -1.750000e+00  -1.500000e+00  0  1318 0  -1.392254e+00 -1.392217e+00 1.180454e+00   1.293524e+00 -1.293503e+00 -1.146352e-05 2.000000e-01  6.250000e-02  
-2.000000e+00  -1.750000e+00  -1.500000e+00  0  1317 0  8.285783e-01 2.790835e+00 3.711353e+00   1.573883e+00 -5.005922e-02 6.336505e-01 2.000000e-01  6.250000e-02  
-1.500000e+00  -2.000000e+00  -1.500000e+00  0  1308 0  -6.620581e+00 3.392625e+00 -8.028164e+00   -1.244750e-01 2.132800e-01 -3.705794e-01 2.000000e-01  6.250000e-02  
-1.500000e+00  -1.750000e+00  -1.500000e+00  0  1319 0  -4.984362e+00 -5.267359e-01 -2.853307e+00   1.175186e-01 7.761134e-01 -4.281805e-01 2.000000e-01  6.250000e-02  
-1.250000e+00  -2.000000e+00  -1.500000e+00  0  2275 0  -2.125242e+00 -3.642156e-01 2.900513e-01   -4.500662e-01 3.455718e-01 1.409117e-01 2.000000e-01  6.250000e-02  
-1.250000e+00  -1.750000e+00  -1.500000e+00  0  2283 0  3.545909e+00 -2.942892e-01 -1.928961e+00   -6.637579e-01 8.506934e-01 -1.069789e+00 2.000000e-01  6.250000e-02  
-1.000000e+00  -2.000000e+00  -1.500000e+00  0  2276 0  9.044182e+00 -3.271845e-02 3.523562e+00   -1.869180e-01 -1.262899e+00 -7.473482e-03 2.000000e-01  6.250000e-02  
-1.000000e+00  -1.750000e+00  -1.500000e+00  0  2284 0  -1.688794e+00 1.636309e+00 -1.087128e+00   1.415570e-01 -2.394396e+00 -1.260109e+00 2.000000e-01  6.250000e-02  
-7.500000e-01  -2.000000e+00  -1.500000e+00  0  2277 0  3.885309e+00 4.961291e-01 4.043147e+00   -1.241889e-01 -2.967198e+00 -1.654954e-01 2.000000e-01  6.250000e-02  
-7.500000e-01  -1.750000e+00  -1.500000e+00  0  2285 0  7.627305e+00 3.071691e+00 9.458487e-01   8.732115e-01 -3.367958e+00 -3.013875e-01 2.000000e-01  6.250000e-02  
-5.000000e-01  -2.000000e+00  -1.500000e+00  0  2278 0  3.432346e+00 4.987489e-01 2.739278e+00   -3.150570e-01 -1.632328e+00 -3.036276e-01 2.000000e-01  6.250000e-02  
-5.000000e-01  -1.750000e+00  -1.500000e+00  0  2286 0  -5.747293e+00 5.225171e+00 -5.276881e+00   -1.450233e-01 -7.021301e-01 7.530268e-01 2.000000e-01  6.250000e-02  
-2.500000e-01  -2.000000e+00  -1.500000e+00  0  2279 0  8.486303e+00 -6.761307e-01 -1.307199e+00   -8.534171e-02 4.845408e-01 -5.493944e-02 2.000000e-01  6.250000e-02  