VARIABLES="X", "Y", "Z", "Maximum Refinment Level", "Temp_ID", "Thread","Ex (corner node)","Ey (corner node)","Ez (corner node)","Bx (center node)","By (center node)","Bz (center node)", "Local Time Step" , "log10(Local Particle Weight)" 
ZONE N=4913, E=4096, DATAPACKING=POINT, ZONETYPE=FEBRICK
-2.000000e+00  -2.000000e+00  -2.000000e+00  0  316 0  -9.656799e-06 -1.907996e-05 -4.782997e-06   -1.602521e-10 -4.054094e-10 -5.327354e-11 2.000000e-01  6.250000e-02  
-1.750000e+00  -2.000000e+00  -2.000000e+00  0  317 0  1.018185e+01 1.415993e-06 -1.668716e-08   8.060050e-11 -2.079049e-07 1.971099e-06 2.000000e-01  6.250000e-02  
-1.750000e+00  -1.750000e+00  -2.000000e+00  0  328 0  -3.341266e-01 -3.341318e-01 -3.440795e-06   1.385067e-07 -1.363881e-07 1.571062e-07 2.000000e-01  6.250000e-02  
-2.000000e+00  -1.750000e+00  -2.000000e+00  0  327 0  1.822887e-06 1.018184e+01 -1.435797e-09   1.985058e-07 3.499428e-09 -1.702590e-06 2.000000e-01  6.250000e-02  
-2.000000e+00  -2.000000e+00  -1.750000e+00  0  459 0  1.930233e-06 1.429738e-06 1.018186e+01   -1.981637e-06 1.720045e-06 3.026803e-09 2.000000e-01  6.250000e-02  
-1.750000e+00  -2.000000e+00  -1.750000e+00  0  460 0  -3.341181e-01 -2.184809e-05 -3.341108e-01   -1.251900e-06 -5.198293e-08 1.258383e-06 2.000000e-01  6.250000e-02  
-1.750000e+00  -1.750000e+00  -1.750000e+00  0  471 0  1.643169e+00 1.643174e+00 1.643195e+00   -3.317856e-07 1.762365e-07 1.556776e-07 2.000000e-01  6.250000e-02  
-2.000000e+00  -1.750000e+00  -1.750000e+00  0  470 0  -1.704906e-05 -3.341118e-01 -3.340996e-01   -9.518191e-08 1.052654e-06 -1.061150e-06 2.000000e-01  6.250000e-02  
-1.500000e+00  -2.000000e+00  -2.000000e+00  0  318 0  -8.860894e+00 -1.097114e-05 -1.746619e-06   2.540175e-10 -2.651373e-07 1.684109e-06 2.000000e-01  6.250000e-02  
-1.500000e+00  -1.750000e+00  -2.000000e+00  0  329 0  1.519629e+01 -5.917858e+00 -3.381008e-08   1.497324e-08 -1.241950e-08 -1.647542e+00 2.000000e-01  6.250000e-02  
-1.500000e+00  -2.000000e+00  -1.750000e+00  0  461 0  1.519629e+01 -2.414355e-07 -5.917857e+00   -1.254905e-07 1.647542e+00 8.474308e-08 2.000000e-01  6.250000e-02  
-1.500000e+00  -1.750000e+00  -1.750000e+00  0  472 0  9.612037e-01 -1.626667e+01 -1.626667e+01   -3.460873e-07 2.103217e+00 -2.103217e+00 2.000000e-01  6.250000e-02  
-1.250000e+00  -2.000000e+00  -2.000000e+00  0  2083 0  -2.694816e+01 -3.164711e-06 -5.276278e-07   6.104423e-11 -1.915520e-07 1.176789e-06 2.000000e-01  6.250000e-02  
-1.250000e+00  -1.750000e+00  -2.000000e+00  0  2091 0  5.823756e+00 4.798338e-01 2.123788e-07   -3.359968e-08 -1.272011e-07 -1.121482e-01 2.000000e-01  6.250000e-02  
-1.250000e+00  -2.000000e+00  -1.750000e+00  0  2187 0  5.823756e+00 1.362414e-06 4.798357e-01   1.924258e-07 1.121482e-01 7.878900e-07 2.000000e-01  6.250000e-02  
-1.250000e+00  -1.750000e+00  -1.750000e+00  0  2195 0  3.261578e+00 -1.479633e+01 -1.479632e+01   2.247384e-08 -7.847230e-01 7.847233e-01 2.000000e-01  6.250000e-02  
-1.000000e+00  -2.000000e+00  -2.000000e+00  0  2084 0  3.900641e+00 -2.511066e-06 -4.184627e-07   -1.077017e-10 -1.742897e-08 1.228814e-07 2.000000e-01  6.250000e-02  
-1.000000e+00  -1.750000e+00  -2.000000e+00  0  2092 0  1.692471e+01 -1.503058e+01 -1.292870e-07   -2.660115e-08 -2.933507e-08 2.099065e+00 2.000000e-01  6.250000e-02  
-1.000000e+00  -2.000000e+00  -1.750000e+00  0  2188 0  1.692471e+01 -8.497927e-07 -1.503058e+01   1.508986e-07 -2.099065e+00 1.861967e-07 2.000000e-01  6.250000e-02  
-1.000000e+00  -1.750000e+00  -1.750000e+00  0  2196 0  8.244604e+00 -4.281531e+00 -4.281529e+00   8.830433e-08 -1.749939e+00 1.749939e+00 2.000000e-01  6.250000e-02  
-7.500000e-01  -2.000000e+00  -2.000000e+00  0  2085 0  -1.931972e+01 1.258637e-06 2.012005e-07   -2.081400e-10 2.821749e-09 -8.168589e-09 2.000000e-01  6.250000e-02  
-7.500000e-01  -1.750000e+00  -2.000000e+00  0  2093 0  -3.975959e+00 -1.816197e+01 -1.981903e-07   -1.109300e-08 -2.033243e-09 1.615960e+00 2.000000e-01  6.250000e-02  
-7.500000e-01  -2.000000e+00  -1.750000e+00  0  2189 0  -3.975960e+00 -1.110055e-06 -1.816197e+01   6.671709e-08 -1.615961e+00 1.927689e-08 2.000000e-01  6.250000e-02  
-7.500000e-01  -1.750000e+00  -1.750000e+00  0  2197 0  -1.818797e+01 -4.426283e+00 -4.426284e+00   -2.733007e-08 -1.001605e+00 1.001605e+00 2.000000e-01  6.250000e-02  
-5.000000e-01  -2.000000e+00  -2.000000e+00  0  2086 0  -1.470719e+01 3.535834e-06 5.700958e-07   -2.326502e-10 -9.865404e-09 5.100715e-08 2.000000e-01  6.250000e-02  
-5.000000e-01  -1.750000e+00  -2.000000e+00  0  2094 0  -4.206525e+00 -3.391853e+00 -1.959403e-07   1.650913e-08 3.283143e-10 8.041644e-01 2.000000e-01  6.250000e-02  
-5.000000e-01  -2.000000e+00  -1.750000e+00  0  2190 0  -4.206525e+00 -1.343748e-06 -3.391853e+00   -9.834547e-08 -8.041644e-01 -6.121384e-09 2.000000e-01  6.250000e-02  
-5.000000e-01  -1.750000e+00  -1.750000e+00  0  2198 0  -2.350755e+00 -1.516257e+01 -1.516257e+01   -7.956216e-08 -7.102936e-01 7.102937e-01 2.000000e-01  6.250000e-02  
-2.500000e-01  -2.000000e+00  -2.000000e+00  0  2087 0  3.891978e+00 -9.130199e-08 -1.343763e-08   -1.826673e-10 -2.871907e-08 1.741842e-07 2.000000e-01  6.250000e-02  
-2.500000e-01  -1.750000e+00  -2.000000e+00  0  2095 0  -1.284883e-01 -1.724758e+01 7.091477e-08   1.500751e-08 -1.659836e-08 3.121934e-01 2.000000e-01  6.250000e-02  
-2.500000e-01  -2.000000e+00  -1.750000e+00  0  2191 0  -1.284886e-01 4.553446e-07 -1.724758e+01   -9.004328e-08 -3.121933e-01 9.841481e-08 2.000000e-01  6.250000e-02  
-2.500000e-01  -1.750000e+00  -1.750000e+00  0  2199 0  2.098702e+01 -2.328973e-01 -2.328968e-01   -4.426888e-08 -3.877689e-01 3.877690e-01 2.000000e-01  6.250000e-02  
0.000000e+00  -2.000000e+00  -2.000000e+00  0  2088 0  1.906606e-06 -4.135383e-07 -6.393500e-08   -3.116583e-11 1.723631e-10 5.172635e-10 2.000000e-01  6.250000e-02  
0.000000e+00  -1.750000e+00  -2.000000e+00  0  2096 0  1.449553e-06 -2.319744e+00 4.075563e-08   8.438857e-09 6.938250e-11 -9.939863e-07 2.000000e-01  6.250000e-02  
0.000000e+00  -2.000000e+00  -1.750000e+00  0  2192 0  1.448808e-06 2.372210e-07 -2.319743e+00   -5.107083e-08 9.937590e-07 6.792232e-10 2.000000e-01  6.250000e-02  
0.000000e+00  -1.750000e+00  -1.750000e+00  0  2200 0  -2.560832e-06 -1.764734e+01 -1.764734e+01   2.689975e-09 6.679962e-07 -6.681054e-07 2.000000e-01  6.250000e-02  
-1.750000e+00  -1.500000e+00  -2.000000e+00  0  339 0  -5.917855e+00 1.519629e+01 -6.067811e-08   7.803885e-09 -1.174596e-08 1.647542e+00 2.000000e-01  6.250000e-02  
-2.000000e+00  -1.500000e+00  -2.000000e+00  0  338 0  -8.057841e-06 -8.860863e+00 -1.777920e-06   2.538774e-07 4.512834e-09 -1.350336e-06 2.000000e-01  6.250000e-02  
-1.750000e+00  -1.500000e+00  -1.750000e+00  0  482 0  -1.626666e+01 9.612029e-01 -1.626666e+01   -2.103217e+00 4.215435e-07 2.103217e+00 2.000000e-01  6.250000e-02  
-2.000000e+00  -1.500000e+00  -1.750000e+00  0  481 0  -2.182182e-07 1.519629e+01 -5.917861e+00   -1.647542e+00 9.345825e-08 -8.894583e-08 2.000000e-01  6.250000e-02  
-1.500000e+00  -1.500000e+00  -2.000000e+00  0  340 0  2.292441e+00 2.292441e+00 -1.587156e-07   -9.792553e-08 9.862835e-08 2.315394e-07 2.000000e-01  6.250000e-02  
-1.500000e+00  -1.500000e+00  -1.750000e+00  0  483 0  5.873106e+00 5.873107e+00 -1.848964e+01   -2.169619e+00 2.169619e+00 2.469290e-08 2.000000e-01  6.250000e-02  
-1.250000e+00  -1.500000e+00  -2.000000e+00  0  2099 0  -6.933284e+00 5.954006e+00 -2.738490e-07   3.337057e-08 -4.483589e-08 -8.810848e-01 2.000000e-01  6.250000e-02  
-1.250000e+00  -1.500000e+00  -1.750000e+00  0  2203 0  -2.896826e+00 1.006052e+01 -1.320086e+01   -1.745500e+00 -1.292825e+00 -1.304700e+00 2.000000e-01  6.250000e-02  
-1.000000e+00  -1.500000e+00  -2.000000e+00  0  2100 0  4.350981e+00 1.328762e+01 -1.003540e-08   9.687498e-09 -3.557673e-08 9.878871e-01 2.000000e-01  6.250000e-02  
-1.000000e+00  -1.500000e+00  -1.750000e+00  0  2204 0  2.281381e-01 9.479587e+00 -4.056756e+00   -7.960003e-01 -1.283464e+00 -4.411526e-02 2.000000e-01  6.250000e-02  
-7.500000e-01  -1.500000e+00  -2.000000e+00  0  2101 0  -6.452033e+00 2.655320e+00 6.453347e-08   5.598005e-10 -1.116758e-09 -1.766328e-01 2.000000e-01  6.250000e-02  
-7.500000e-01  -1.500000e+00  -1.750000e+00  0  2205 0  -1.451409e+01 2.148396e+01 -1.068424e+01   -1.745699e-01 -7.228580e-01 4.521981e-01 2.000000e-01  6.250000e-02  
-5.000000e-01  -1.500000e+00  -2.000000e+00  0  2102 0  -4.334518e+00 9.872000e+00 1.015466e-07   5.504686e-09 2.746122e-09 -9.444688e-01 2.000000e-01  6.250000e-02  
-5.000000e-01  -1.500000e+00  -1.750000e+00  0  2206 0  4.201678e+00 2.171561e+01 -1.287935e+01   -6.069294e-01 -7.124290e-01 -7.093264e-01 2.000000e-01  6.250000e-02  
-2.500000e-01  -1.500000e+00  -2.000000e+00  0  2103 0  1.030704e+00 7.617635e+00 -8.241669e-09   1.175412e-09 -2.032926e-09 -7.788971e-01 2.000000e-01  6.250000e-02  
-2.500000e-01  -1.500000e+00  -1.750000e+00  0  2207 0  -2.922481e+00 1.615728e+01 -4.686086e+00   -6.473479e-01 -4.559072e-01 -8.850522e-01 2.000000e-01  6.250000e-02  
0.000000e+00  -1.500000e+00  -2.000000e+00  0  2104 0  1.242574e-07 7.656192e+00 -2.942955e-08   -3.456725e-09 9.169059e-11 -2.235978e-07 2.000000e-01  6.250000e-02  
0.000000e+00  -1.500000e+00  -1.750000e+00  0  2208 0  4.424223e-07 2.251002e+01 -1.321126e+01   -5.486300e-01 1.745713e-07 -1.524285e-07 2.000000e-01  6.250000e-02  
-1.750000e+00  -1.250000e+00  -2.000000e+00  0  350 0  4.798402e-01 5.823758e+00 2.173401e-07   1.284453e-07 3.224171e-08 1.121467e-01 2.000000e-01  6.250000e-02  
-2.000000e+00  -1.250000e+00  -2.000000e+00  0  349 0  -2.428002e-06 -2.694820e+01 -5.133460e-07   1.920124e-07 1.130657e-09 -9.076264e-07 2.000000e-01  6.250000e-02  
-1.750000e+00  -1.250000e+00  -1.750000e+00  0  493 0  -1.479633e+01 3.261581e+00 -1.479632e+01   7.847237e-01 1.105893e-07 -7.847239e-01 2.000000e-01  6.250000e-02  
-2.000000e+00  -1.250000e+00  -1.750000e+00  0  492 0  1.003859e-06 5.823757e+00 4.798410e-01   -1.121469e-01 -1.415204e-07 -6.091566e-07 2.000000e-01  6.250000e-02  
-1.500000e+00  -1.250000e+00  -2.000000e+00  0  351 0  5.954006e+00 -6.933285e+00 -2.689677e-07   4.516681e-08 -3.325173e-08 8.810846e-01 2.000000e-01  6.250000e-02  
-1.500000e+00  -1.250000e+00  -1.750000e+00  0  494 0  1.006052e+01 -2.896826e+00 -1.320086e+01   1.292825e+00 1.745500e+00 1.304700e+00 2.000000e-01  6.250000e-02  
-1.250000e+00  -1.250000e+00  -2.000000e+00  0  2107 0  -2.077855e+00 -2.077855e+00 8.561741e-08   3.118712e-08 -3.062470e-08 -8.262959e-08 2.000000e-01  6.250000e-02  
-1.250000e+00  -1.250000e+00  -1.750000e+00  0  2211 0  -4.502659e+00 -4.502659e+00 -1.139271e+01   4.393738e-01 -4.393737e-01 -1.110091e-08 2.000000e-01  6.250000e-02  
-1.000000e+00  -1.250000e+00  -2.000000e+00  0  2108 0  7.005710e+00 -9.606367e-01 -4.817011e-08   1.631298e-08 -2.057155e-08 -1.799077e+00 2.000000e-01  6.250000e-02  
-1.000000e+00  -1.250000e+00  -1.750000e+00  0  2212 0  4.690441e+00 -5.145817e+00 -1.500599e+01   3.967723e-01 -8.007032e-01 -2.586570e+00 2.000000e-01  6.250000e-02  
-7.500000e-01  -1.250000e+00  -2.000000e+00  0  2109 0  -1.424087e+01 -4.669340e+00 -8.265579e-09   -2.976869e-10 4.887121e-09 -3.799825e-01 2.000000e-01  6.250000e-02  
-7.500000e-01  -1.250000e+00  -1.750000e+00  0  2213 0  -5.304710e+00 -6.351333e+00 -1.818639e+01   7.854593e-01 -9.634999e-01 -4.415546e-01 2.000000e-01  6.250000e-02  
-5.000000e-01  -1.250000e+00  -2.000000e+00  0  2110 0  -7.984503e+00 2.548488e+00 -9.970557e-09   1.842698e-09 -2.902061e-09 1.385644e-01 2.000000e-01  6.250000e-02  
-5.000000e-01  -1.250000e+00  -1.750000e+00  0  2214 0  1.512654e+00 -7.153269e+00 -1.525589e+01   8.534363e-01 -6.408684e-01 -1.303732e-01 2.000000e-01  6.250000e-02  
-2.500000e-01  -1.250000e+00  -2.000000e+00  0  2111 0  2.507287e+00 -1.568408e+00 4.307712e-10   1.064108e-09 -1.529210e-11 -1.612551e-01 2.000000e-01  6.250000e-02  
-2.500000e-01  -1.250000e+00  -1.750000e+00  0  2215 0  1.150865e+00 -5.978062e+00 -1.575092e+01   9.694949e-01 -3.776735e-01 -2.467391e-01 2.000000e-01  6.250000e-02  
0.000000e+00  -1.250000e+00  -2.000000e+00  0  2112 0  1.153639e-07 3.160910e+00 5.155552e-09   1.799266e-09 2.679537e-11 -5.638170e-08 2.000000e-01  6.250000e-02  
0.000000e+00  -1.250000e+00  -1.750000e+00  0  2216 0  -8.428078e-08 -8.835872e+00 -1.615309e+01   9.841825e-01 7.434044e-09 -3.949027e-08 2.000000e-01  6.250000e-02  
-1.750000e+00  -1.000000e+00  -2.000000e+00  0  361 0  -1.503058e+01 1.692471e+01 -1.376500e-07   2.866576e-08 2.617006e-08 -2.099066e+00 2.000000e-01  6.250000e-02  
-2.000000e+00  -1.000000e+00  -2.000000e+00  0  360 0  -1.929479e-06 3.900645e+00 -4.156907e-07   1.824432e-08 5.926685e-10 -9.620707e-08 2.000000e-01  6.250000e-02  
-1.750000e+00  -1.000000e+00  -1.750000e+00  0  504 0  -4.281532e+00 8.244600e+00 -4.281530e+00   1.749939e+00 -8.423548e-08 -1.749939e+00 2.000000e-01  6.250000e-02  
-2.000000e+00  -1.000000e+00  -1.750000e+00  0  503 0  -6.522421e-07 1.692471e+01 -1.503058e+01   2.099066e+00 -1.094351e-07 -1.403943e-07 2.000000e-01  6.250000e-02  
-1.500000e+00  -1.000000e+00  -2.000000e+00  0  362 0  1.328762e+01 4.350980e+00 -7.456196e-09   3.440191e-08 -9.915193e-09 -9.878874e-01 2.000000e-01  6.250000e-02  
-1.500000e+00  -1.000000e+00  -1.750000e+00  0  505 0  9.479587e+00 2.281390e-01 -4.056756e+00   1.283464e+00 7.960003e-01 4.411504e-02 2.000000e-01  6.250000e-02  
-1.250000e+00  -1.000000e+00  -2.000000e+00  0  2115 0  -9.606362e-01 7.005710e+00 -5.029325e-08   2.017253e-08 -1.575197e-08 1.799077e+00 2.000000e-01  6.250000e-02  
-1.250000e+00  -1.000000e+00  -1.750000e+00  0  2219 0  -5.145817e+00 4.690441e+00 -1.500599e+01   8.007032e-01 -3.967723e-01 2.586570e+00 2.000000e-01  6.250000e-02  
-1.000000e+00  -1.000000e+00  -2.000000e+00  0  2116 0  -8.546412e+00 -8.546412e+00 -3.203657e-09   2.189690e-09 -2.180563e-09 2.908917e-08 2.000000e-01  6.250000e-02  
-1.000000e+00  -1.000000e+00  -1.750000e+00  0  2220 0  8.213288e+00 8.213288e+00 -1.341381e+01   -7.614016e-02 7.614016e-02 1.121027e-08 2.000000e-01  6.250000e-02  
-7.500000e-01  -1.000000e+00  -2.000000e+00  0  2117 0  9.947624e-01 5.717152e+00 4.192318e-10   -3.038731e-09 9.732102e-10 1.356886e+00 2.000000e-01  6.250000e-02  
-7.500000e-01  -1.000000e+00  -1.750000e+00  0  2221 0  -3.690884e+00 1.594263e+01 -1.254345e+01   -1.741675e-01 -4.094783e-01 4.844265e-01 2.000000e-01  6.250000e-02  
-5.000000e-01  -1.000000e+00  -2.000000e+00  0  2118 0  -5.537624e-01 5.550202e-01 -4.363536e-10   2.479324e-10 -9.759946e-10 9.852891e-01 2.000000e-01  6.250000e-02  
-5.000000e-01  -1.000000e+00  -1.750000e+00  0  2222 0  -5.235298e+00 -5.782189e+00 -1.293825e+01   5.093093e-01 -2.483059e-01 4.902206e-01 2.000000e-01  6.250000e-02  
-2.500000e-01  -1.000000e+00  -2.000000e+00  0  2119 0  -9.101558e-01 -5.012752e-01 1.098907e-09   -1.635237e-10 -2.325773e-11 -3.335178e-01 2.000000e-01  6.250000e-02  
-2.500000e-01  -1.000000e+00  -1.750000e+00  0  2223 0  7.669678e+00 4.212798e+00 -9.745603e+00   8.237317e-01 -2.187331e-01 -4.660115e-01 2.000000e-01  6.250000e-02  
0.000000e+00  -1.000000e+00  -2.000000e+00  0  2120 0  3.306222e-09 -1.323286e+00 -1.049339e-09   -3.489505e-10 -3.273548e-12 3.062214e-10 2.000000e-01  6.250000e-02  
0.000000e+00  -1.000000e+00  -1.750000e+00  0  2224 0  8.874368e-10 5.085486e+00 -1.368717e+01   8.680814e-01 5.146507e-09 2.817598e-10 2.000000e-01  6.250000e-02  
-1.750000e+00  -7.500000e-01  -2.000000e+00  0  372 0  -1.816197e+01 -3.975956e+00 -1.802597e-07   1.169209e-09 9.970365e-09 -1.615960e+00 2.000000e-01  6.250000e-02  
-2.000000e+00  -7.500000e-01  -2.000000e+00  0  371 0  9.373822e-07 -1.931974e+01 1.991775e-07   -4.529537e-09 3.447889e-10 4.094777e-09 2.000000e-01  6.250000e-02  
-1.750000e+00  -7.500000e-01  -1.750000e+00  0  515 0  -4.426281e+00 -1.818797e+01 -4.426282e+00   1.001605e+00 5.445595e-08 -1.001605e+00 2.000000e-01  6.250000e-02  
-2.000000e+00  -7.500000e-01  -1.750000e+00  0  514 0  -8.165838e-07 -3.975957e+00 -1.816197e+01   1.615960e+00 -5.050200e-08 -1.533757e-08 2.000000e-01  6.250000e-02  
-1.500000e+00  -7.500000e-01  -2.000000e+00  0  373 0  2.655320e+00 -6.452034e+00 6.455754e-08   1.140201e-09 -1.481918e-09 1.766328e-01 2.000000e-01  6.250000e-02  
-1.500000e+00  -7.500000e-01  -1.750000e+00  0  516 0  2.148396e+01 -1.451409e+01 -1.068424e+01   7.228579e-01 1.745698e-01 -4.521982e-01 2.000000e-01  6.250000e-02  
-1.250000e+00  -7.500000e-01  -2.000000e+00  0  2123 0  -4.669340e+00 -1.424087e+01 -8.889189e-09   -4.533754e-09 4.016498e-10 3.799826e-01 2.000000e-01  6.250000e-02  
-1.250000e+00  -7.500000e-01  -1.750000e+00  0  2227 0  -6.351333e+00 -5.304710e+00 -1.818639e+01   9.634999e-01 -7.854592e-01 4.415546e-01 2.000000e-01  6.250000e-02  
-1.000000e+00  -7.500000e-01  -2.000000e+00  0  2124 0  5.717152e+00 9.947622e-01 5.789597e-10   -8.712051e-10 3.017175e-09 -1.356886e+00 2.000000e-01  6.250000e-02  
-1.000000e+00  -7.500000e-01  -1.750000e+00  0  2228 0  1.594263e+01 -3.690884e+00 -1.254345e+01   4.094783e-01 1.741675e-01 -4.844265e-01 2.000000e-01  6.250000e-02  
-7.500000e-01  -7.500000e-01  -2.000000e+00  0  2125 0  -5.957446e+00 -5.957446e+00 8.669390e-09   1.988511e-09 -2.031242e-09 -4.179757e-09 2.000000e-01  6.250000e-02  
-7.500000e-01  -7.500000e-01  -1.750000e+00  0  2229 0  -7.672626e+00 -7.672626e+00 -7.974153e+00   3.091735e-01 -3.091735e-01 -1.796988e-09 2.000000e-01  6.250000e-02  
-5.000000e-01  -7.500000e-01  -2.000000e+00  0  2126 0  -2.780144e+00 -2.671051e+00 -6.425494e-10   7.573036e-10 -8.898824e-10 1.145206e-01 2.000000e-01  6.250000e-02  
-5.000000e-01  -7.500000e-01  -1.750000e+00  0  2230 0  1.201738e+00 -5.044142e+00 -1.732581e+01   6.010986e-01 -2.741935e-01 4.322298e-01 2.000000e-01  6.250000e-02  
-2.500000e-01  -7.500000e-01  -2.000000e+00  0  2127 0  2.977042e-01 9.095972e-01 4.814931e-10   1.537635e-10 1.635716e-10 -2.453439e-01 2.000000e-01  6.250000e-02  
-2.500000e-01  -7.500000e-01  -1.750000e+00  0  2231 0  3.093456e+00 -4.126337e+00 -1.274833e+01   4.805395e-01 -1.341761e-01 -1.880238e-01 2.000000e-01  6.250000e-02  
0.000000e+00  -7.500000e-01  -2.000000e+00  0  2128 0  -1.445148e-09 -8.173478e-03 1.225954e-09   7.232590e-11 -1.913394e-11 1.060132e-09 2.000000e-01  6.250000e-02  
0.000000e+00  -7.500000e-01  -1.750000e+00  0  2232 0  -3.695180e-09 -9.754641e+00 -1.765546e+01   4.268063e-01 1.177383e-09 8.295393e-10 2.000000e-01  6.250000e-02  
-1.750000e+00  -5.000000e-01  -2.000000e+00  0  383 0  -3.391852e+00 -4.206524e+00 -1.953831e-07   -9.641189e-10 -1.752733e-08 -8.041636e-01 2.000000e-01  6.250000e-02  
-2.000000e+00  -5.000000e-01  -2.000000e+00  0  382 0  2.671019e-06 -1.470717e+01 5.721383e-07   8.212851e-09 -2.569006e-11 -3.234431e-08 2.000000e-01  6.250000e-02  
-1.750000e+00  -5.000000e-01  -1.750000e+00  0  526 0  -1.516257e+01 -2.350758e+00 -1.516257e+01   7.102932e-01 6.860314e-08 -7.102933e-01 2.000000e-01  6.250000e-02  
-2.000000e+00  -5.000000e-01  -1.750000e+00  0  525 0  -1.040502e-06 -4.206525e+00 -3.391852e+00   8.041636e-01 7.316965e-08 8.132117e-09 2.000000e-01  6.250000e-02  
-1.500000e+00  -5.000000e-01  -2.000000e+00  0  384 0  9.872000e+00 -4.334517e+00 1.021677e-07   -3.007334e-09 -5.938807e-09 9.444688e-01 2.000000e-01  6.250000e-02  
-1.500000e+00  -5.000000e-01  -1.750000e+00  0  527 0  2.171561e+01 4.201678e+00 -1.287935e+01   7.124290e-01 6.069294e-01 7.093263e-01 2.000000e-01  6.250000e-02  
-1.250000e+00  -5.000000e-01  -2.000000e+00  0  2131 0  2.548488e+00 -7.984503e+00 -1.068565e-08   2.613135e-09 -1.903987e-09 -1.385643e-01 2.000000e-01  6.250000e-02  
-1.250000e+00  -5.000000e-01  -1.750000e+00  0  2235 0  -7.153269e+00 1.512654e+00 -1.525589e+01   6.408684e-01 -8.534363e-01 1.303733e-01 2.000000e-01  6.250000e-02  
-1.000000e+00  -5.000000e-01  -2.000000e+00  0  2132 0  5.550202e-01 -5.537624e-01 -7.620196e-10   8.456495e-10 -2.293947e-10 -9.852891e-01 2.000000e-01  6.250000e-02  
-1.000000e+00  -5.000000e-01  -1.750000e+00  0  2236 0  -5.782189e+00 -5.235298e+00 -1.293825e+01   2.483059e-01 -5.093093e-01 -4.902206e-01 2.000000e-01  6.250000e-02  
-7.500000e-01  -5.000000e-01  -2.000000e+00  0  2133 0  -2.671051e+00 -2.780144e+00 2.583528e-10   7.404468e-10 -7.035017e-10 -1.145206e-01 2.000000e-01  6.250000e-02  
-7.500000e-01  -5.000000e-01  -1.750000e+00  0  2237 0  -5.044142e+00 1.201738e+00 -1.732581e+01   2.741935e-01 -6.010986e-01 -4.322299e-01 2.000000e-01  6.250000e-02  
-5.000000e-01  -5.000000e-01  -2.000000e+00  0  2134 0  -1.626845e+00 -1.626845e+00 1.777144e-09   1.047246e-10 -2.497668e-10 6.085823e-10 2.000000e-01  6.250000e-02  
-5.000000e-01  -5.000000e-01  -1.750000e+00  0  2238 0  2.412930e+00 2.412930e+00 -2.248339e+01   3.651567e-01 -3.651567e-01 5.946490e-10 2.000000e-01  6.250000e-02  
-2.500000e-01  -5.000000e-01  -2.000000e+00  0  2135 0  -1.628271e-01 -2.409679e+00 2.117491e-10   -1.895169e-10 1.976524e-10 -1.715265e-01 2.000000e-01  6.250000e-02  
-2.500000e-01  -5.000000e-01  -1.750000e+00  0  2239 0  2.849540e+00 -5.951788e+00 -1.602045e+01   2.006606e-01 -9.669619e-02 -2.080173e-01 2.000000e-01  6.250000e-02  
0.000000e+00  -5.000000e-01  -2.000000e+00  0  2136 0  6.296729e-11 -3.541409e+00 1.238152e-09   -6.212082e-11 -2.114728e-11 -4.564111e-10 2.000000e-01  6.250000e-02  
0.000000e+00  -5.000000e-01  -1.750000e+00  0  2240 0  6.053670e-10 4.176405e+00 -2.027416e+01   1.960846e-01 -4.808941e-11 -2.100969e-10 2.000000e-01  6.250000e-02  
-1.750000e+00  -2.500000e-01  -2.000000e+00  0  394 0  -1.724758e+01 -1.284879e-01 6.466726e-08   1.482832e-08 -1.582897e-08 -3.121929e-01 2.000000e-01  6.250000e-02  
-2.000000e+00  -2.500000e-01  -2.000000e+00  0  393 0  -6.295289e-08 3.891975e+00 -2.577832e-09   2.735569e-08 -2.942206e-10 -1.313497e-07 2.000000e-01  6.250000e-02  
-1.750000e+00  -2.500000e-01  -1.750000e+00  0  537 0  -2.328982e-01 2.098702e+01 -2.328979e-01   3.877686e-01 3.263685e-08 -3.877687e-01 2.000000e-01  6.250000e-02  
-2.000000e+00  -2.500000e-01  -1.750000e+00  0  536 0  3.471017e-07 -1.284881e-01 -1.724758e+01   3.121928e-01 6.818392e-08 -7.346687e-08 2.000000e-01  6.250000e-02  
-1.500000e+00  -2.500000e-01  -2.000000e+00  0  395 0  7.617635e+00 1.030704e+00 -8.758898e-09   1.028668e-09 -1.089604e-09 7.788971e-01 2.000000e-01  6.250000e-02  
-1.500000e+00  -2.500000e-01  -1.750000e+00  0  538 0  1.615728e+01 -2.922481e+00 -4.686086e+00   4.559071e-01 6.473480e-01 8.850522e-01 2.000000e-01  6.250000e-02  
-1.250000e+00  -2.500000e-01  -2.000000e+00  0  2139 0  -1.568408e+00 2.507287e+00 6.804962e-11   -2.231193e-10 -1.166429e-09 1.612552e-01 2.000000e-01  6.250000e-02  
-1.250000e+00  -2.500000e-01  -1.750000e+00  0  2243 0  -5.978062e+00 1.150865e+00 -1.575092e+01   3.776734e-01 -9.694949e-01 2.467392e-01 2.000000e-01  6.250000e-02  
-1.000000e+00  -2.500000e-01  -2.000000e+00  0  2140 0  -5.012752e-01 -9.101558e-01 1.185419e-09   -4.113815e-11 -4.850811e-11 3.335178e-01 2.000000e-01  6.250000e-02  
-1.000000e+00  -2.500000e-01  -1.750000e+00  0  2244 0  4.212798e+00 7.669678e+00 -9.745603e+00   2.187331e-01 -8.237317e-01 4.660115e-01 2.000000e-01  6.250000e-02  
-7.500000e-01  -2.500000e-01  -2.000000e+00  0  2141 0  9.095972e-01 2.977042e-01 -5.214500e-10   -1.661137e-10 -2.480266e-10 2.453439e-01 2.000000e-01  6.250000e-02  
-7.500000e-01  -2.500000e-01  -1.750000e+00  0  2245 0  -4.126337e+00 3.093456e+00 -1.274833e+01   1.341761e-01 -4.805395e-01 1.880238e-01 2.000000e-01  6.250000e-02  
-5.000000e-01  -2.500000e-01  -2.000000e+00  0  2142 0  -2.409679e+00 -1.628271e-01 8.328796e-10   -2.024899e-10 9.624844e-11 1.715265e-01 2.000000e-01  6.250000e-02  
-5.000000e-01  -2.500000e-01  -1.750000e+00  0  2246 0  -5.951788e+00 2.849540e+00 -1.602045e+01   9.669619e-02 -2.006606e-01 2.080173e-01 2.000000e-01  6.250000e-02  
-2.500000e-01  -2.500000e-01  -2.000000e+00  0  2143 0  4.292398e-01 4.292398e-01 3.926237e-10   -1.363484e-10 1.407338e-10 4.631790e-11 2.000000e-01  6.250000e-02  
-2.500000e-01  -2.500000e-01  -1.750000e+00  0  2247 0  2.855401e+00 2.855401e+00 -1.437930e+01   1.198192e-01 -1.198192e-01 -1.257025e-10 2.000000e-01  6.250000e-02  
0.000000e+00  -2.500000e-01  -2.000000e+00  0  2144 0  -2.740878e-10 -2.225716e-01 1.270017e-09   -7.916720e-11 3.979056e-11 -2.313343e-10 2.000000e-01  6.250000e-02  
0.000000e+00  -2.500000e-01  -1.750000e+00  0  2248 0  1.505956e-09 3.506994e+00 -1.579769e+01   1.840091e-01 -1.228808e-10 -1.865607e-10 2.000000e-01  6.250000e-02  
-1.750000e+00  0.000000e+00  -2.000000e+00  0  405 0  -2.319743e+00 1.854051e-06 4.161706e-08   -1.021673e-09 -9.505467e-09 1.250311e-06 2.000000e-01  6.250000e-02  
-2.000000e+00  0.000000e+00  -2.000000e+00  0  404 0  -3.165939e-07 2.254654e-06 -6.673792e-08   -1.088680e-09 -1.880629e-10 -1.378454e-09 2.000000e-01  6.250000e-02  
-1.750000e+00  0.000000e+00  -1.750000e+00  0  548 0  -1.764734e+01 -3.368717e-06 -1.764734e+01   -8.451221e-07 -4.388772e-09 8.447999e-07 2.000000e-01  6.250000e-02  
-2.000000e+00  0.000000e+00  -1.750000e+00  0  547 0  1.798715e-07 1.846612e-06 -2.319743e+00   -1.250495e-06 3.896244e-08 -9.392067e-10 2.000000e-01  6.250000e-02  
-1.500000e+00  0.000000e+00  -2.000000e+00  0  406 0  7.656192e+00 1.422003e-07 -2.860338e-08   -2.339997e-10 3.026853e-09 2.888409e-07 2.000000e-01  6.250000e-02  
-1.500000e+00  0.000000e+00  -1.750000e+00  0  549 0  2.251002e+01 5.739796e-07 -1.321126e+01   -2.221635e-07 5.486300e-01 1.974063e-07 2.000000e-01  6.250000e-02  
-1.250000e+00  0.000000e+00  -2.000000e+00  0  2147 0  3.160910e+00 1.470870e-07 4.479415e-09   1.534211e-10 -1.733994e-09 6.926111e-08 2.000000e-01  6.250000e-02  
-1.250000e+00  0.000000e+00  -1.750000e+00  0  2251 0  -8.835871e+00 -1.095722e-07 -1.615309e+01   -7.588342e-09 -9.841825e-01 4.879215e-08 2.000000e-01  6.250000e-02  
-1.000000e+00  0.000000e+00  -2.000000e+00  0  2148 0  -1.323286e+00 4.215722e-09 -6.448754e-10   -3.874484e-11 5.761971e-11 -4.868249e-10 2.000000e-01  6.250000e-02  
-1.000000e+00  0.000000e+00  -1.750000e+00  0  2252 0  5.085486e+00 1.330325e-09 -1.368717e+01   -6.645538e-09 -8.680814e-01 -5.393672e-10 2.000000e-01  6.250000e-02  
-7.500000e-01  0.000000e+00  -2.000000e+00  0  2149 0  -8.173474e-03 -1.703897e-09 8.117246e-10   -1.132113e-10 -1.945715e-10 -1.472889e-09 2.000000e-01  6.250000e-02  
-7.500000e-01  0.000000e+00  -1.750000e+00  0  2253 0  -9.754641e+00 -5.255820e-09 -1.765546e+01   -1.657447e-09 -4.268063e-01 -1.214380e-09 2.000000e-01  6.250000e-02  
-5.000000e-01  0.000000e+00  -2.000000e+00  0  2150 0  -3.541409e+00 2.679442e-09 1.706407e-09   -1.292737e-10 -1.655470e-11 4.740483e-10 2.000000e-01  6.250000e-02  
-5.000000e-01  0.000000e+00  -1.750000e+00  0  2254 0  4.176405e+00 7.493187e-10 -2.027416e+01   -1.472711e-10 -1.960846e-01 1.961265e-10 2.000000e-01  6.250000e-02  
-2.500000e-01  0.000000e+00  -2.000000e+00  0  2151 0  -2.225716e-01 -4.566422e-10 7.178853e-10   -2.295106e-11 -5.820011e-12 1.442985e-11 2.000000e-01  6.250000e-02  
-2.500000e-01  0.000000e+00  -1.750000e+00  0  2255 0  3.506994e+00 -7.675332e-10 -1.579769e+01   1.408787e-10 -1.840091e-01 2.278334e-11 2.000000e-01  6.250000e-02  
0.000000e+00  0.000000e+00  -2.000000e+00  0  2152 0  1.452773e-09 6.801288e-10 1.973574e-09   2.186831e-11 3.913889e-11 -1.009937e-10 2.000000e-01  6.250000e-02  
0.000000e+00  0.000000e+00  -1.750000e+00  0  2256 0  -2.165400e-09 -1.039112e-09 -1.919194e+01   8.697787e-11 5.567306e-11 -2.800470e-11 2.000000e-01  6.250000e-02  
-2.000000e+00  -2.000000e+00  -1.500000e+00  0  602 0  -8.044714e-06 -1.095495e-05 -8.860832e+00   -1.693753e-06 1.352061e-06 3.647667e-09 2.000000e-01  6.250000e-02  
-1.750000e+00  -2.000000e+00  -1.500000e+00  0  603 0  -5.917857e+00 -2.068693e-07 1.519630e+01   -8.764873e-08 -1.647543e+00 1.323621e-07 2.000000e-01  6.250000e-02  
-1.750000e+00  -1.750000e+00  -1.500000e+00  0  614 0  -1.626666e+01 -1.626667e+01 9.611919e-01   2.103217e+00 -2.103217e+00 -7.453017e-08 2.000000e-01  6.250000e-02  
-2.000000e+00  -1.750000e+00  -1.500000e+00  0  613 0  -1.727575e-07 -5.917863e+00 1.519630e+01   1.647543e+00 8.948516e-08 -9.817951e-08 2.000000e-01  6.250000e-02  
-1.500000e+00  -2.000000e+00  -1.500000e+00  0  604 0  2.292443e+00 -1.107214e-06 2.292442e+00   6.303303e-07 -3.176579e-07 -6.265033e-07 2.000000e-01  6.250000e-02  
-1.500000e+00  -1.750000e+00  -1.500000e+00  0  615 0  5.873099e+00 -1.848965e+01 5.873105e+00   2.169619e+00 3.784901e-07 -2.169619e+00 2.000000e-01  6.250000e-02  
-1.250000e+00  -2.000000e+00  -1.500000e+00  0  2291 0  -6.933283e+00 -1.730132e-06 5.954007e+00   -1.946139e-07 8.810848e-01 2.751149e-07 2.000000e-01  6.250000e-02  
-1.250000e+00  -1.750000e+00  -1.500000e+00  0  2299 0  -2.896822e+00 -1.320086e+01 1.006052e+01   1.745500e+00 1.304700e+00 1.292825e+00 2.000000e-01  6.250000e-02  
-1.000000e+00  -2.000000e+00  -1.500000e+00  0  2292 0  4.350980e+00 -2.336559e-08 1.328762e+01   -5.512419e-08 -9.878874e-01 2.165387e-07 2.000000e-01  6.250000e-02  
-1.000000e+00  -1.750000e+00  -1.500000e+00  0  2300 0  2.281394e-01 -4.056757e+00 9.479586e+00   7.960005e-01 4.411483e-02 1.283464e+00 2.000000e-01  6.250000e-02  
-7.500000e-01  -2.000000e+00  -1.500000e+00  0  2293 0  -6.452032e+00 3.887003e-07 2.655320e+00   -8.539788e-09 1.766327e-01 8.084679e-09 2.000000e-01  6.250000e-02  
-7.500000e-01  -1.750000e+00  -1.500000e+00  0  2301 0  -1.451409e+01 -1.068424e+01 2.148396e+01   1.745699e-01 -4.521981e-01 7.228580e-01 2.000000e-01  6.250000e-02  
-5.000000e-01  -2.000000e+00  -1.500000e+00  0  2294 0  -4.334518e+00 6.704268e-07 9.871999e+00   -3.549184e-08 9.444688e-01 -1.908528e-08 2.000000e-01  6.250000e-02  
-5.000000e-01  -1.750000e+00  -1.500000e+00  0  2302 0  4.201678e+00 -1.287935e+01 2.171561e+01   6.069293e-01 7.093264e-01 7.124290e-01 2.000000e-01  6.250000e-02  
-2.500000e-01  -2.000000e+00  -1.500000e+00  0  2295 0  1.030704e+00 -5.354487e-08 7.617635e+00   -5.436533e-09 7.788971e-01 9.564356e-09 2.000000e-01  6.250000e-02  