VARIABLES="X", "Y", "Z", "Maximum Refinment Level", "Temp_ID", "Thread","Ex (corner node)","Ey (corner node)","Ez (corner node)", "Number Density[1/m^3]", "Particle Number", "Vx [m/s]", "Vy [m/s]", "Vz [m/s]", "|V| [m/s]", "Translational Temperature [K]", "Parallel Translational Temperature [K]", "Tangential Translational Temperature [K]","Bx (center node)","By (center node)","Bz (center node)", "Local Time Step" , "log10(Local Particle Weight)" 
ZONE N=4913, E=4096, DATAPACKING=POINT, ZONETYPE=FEBRICK
-2.000000e+00  -2.000000e+00  -2.000000e+00  0  316 0  1.051885e-16 -4.176029e-17 8.091374e-19   0.000000e+00 0.000000e+00 0.000000e+00 0.000000e+00 0.000000e+00 0.000000e+00 0.000000e+00 0.000000e+00 0.000000e+00 1.685422e-18 -1.112913e-17 8.782038e-18 2.000000e-01  6.250000e-02  
-1.750000e+00  -2.000000e+00  -2.000000e+00  0  317 0  -7.459812e-02 -7.459812e-02 3.484840e-17   0.000000e+00 0.000000e+00 0.000000e+00 0.000000e+00 0.000000e+00 0.000000e+00 0.000000e+00 0.000000e+00 0.000000e+00 -8.686413e-18 -1.616158e-17 3.646307e-17 2.000000e-01  6.250000e-02  
-1.750000e+00  -1.750000e+00  -2.000000e+00  0  328 0  -1.141598e-01 -1.141598e-01 -1.925996e-17   0.000000e+00 0.000000e+00 0.000000e+00 0.000000e+00 0.000000e+00 0.000000e+00 0.000000e+00 0.000000e+00 0.000000e+00 -2.038305e-17 -1.964736e-17 -1.011696e-17 2.000000e-01  6.250000e-02  
-2.000000e+00  -1.750000e+00  -2.000000e+00  0  327 0  -7.459812e-02 -7.459812e-02 -1.318093e-17   0.000000e+00 0.000000e+00 0.000000e+00 0.000000e+00 0.000000e+00 0.000000e+00 0.000000e+00 0.000000e+00 0.000000e+00 -7.568398e-18 5.819871e-19 -1.371516e-17 2.000000e-01  6.250000e-02  
-2.000000e+00  -2.000000e+00  -1.750000e+00  0  459 0  1.618097e-16 -3.241949e-17 -1.703887e-18   0.000000e+00 0.000000e+00 0.000000e+00 0.000000e+00 0.000000e+00 0.000000e+00 0.000000e+00 0.000000e+00 0.000000e+00 -1.288315e-18 -1.367905e-18 -1.733368e-17 2.000000e-01  6.250000e-02  
-1.750000e+00  -2.000000e+00  -1.750000e+00  0  460 0  -7.459812e-02 -7.459812e-02 -4.815339e-18   0.000000e+00 0.000000e+00 0.000000e+00 0.000000e+00 0.000000e+00 0.000000e+00 0.000000e+00 0.000000e+00 0.000000e+00 1.004568e-17 1.321623e-17 5.557891e-17 2.000000e-01  6.250000e-02  
-1.750000e+00  -1.750000e+00  -1.750000e+00  0  471 0  -1.141598e-01 -1.141598e-01 2.597460e-17   0.000000e+00 0.000000e+00 0.000000e+00 0.000000e+00 0.000000e+00 0.000000e+00 0.000000e+00 0.000000e+00 0.000000e+00 1.503591e-17 9.286341e-18 7.935005e-18 2.000000e-01  6.250000e-02  
-2.000000e+00  -1.750000e+00  -1.750000e+00  0  470 0  -7.459812e-02 -7.459812e-02 2.394307e-18   0.000000e+00 0.000000e+00 0.000000e+00 0.000000e+00 0.000000e+00 0.000000e+00 0.000000e+00 0.000000e+00 0.000000e+00 1.260030e-17 1.124165e-17 -3.353573e-17 2.000000e-01  6.250000e-02  
-1.500000e+00  -2.000000e+00  -2.000000e+00  0  318 0  -1.141598e-01 -1.141598e-01 6.131074e-18   0.000000e+00 0.000000e+00 0.000000e+00 0.000000e+00 0.000000e+00 0.000000e+00 0.000000e+00 0.000000e+00 0.000000e+00 -1.031763e-17 -1.427401e-17 2.631901e-17 2.000000e-01  6.250000e-02  
-1.500000e+00  -1.750000e+00  -2.000000e+00  0  329 0  -9.365922e-02 -9.365922e-02 -1.657143e-17   0.000000e+00 0.000000e+00 0.000000e+00 0.000000e+00 0.000000e+00 0.000000e+00 0.000000e+00 0.000000e+00 0.000000e+00 -2.178685e-17 -1.692955e-17 5.295650e-17 2.000000e-01  6.250000e-02  
-1.500000e+00  -2.000000e+00  -1.750000e+00  0  461 0  -1.141598e-01 -1.141598e-01 -4.610779e-18   0.000000e+00 0.000000e+00 0.000000e+00 0.000000e+00 0.000000e+00 0.000000e+00 0.000000e+00 0.000000e+00 0.000000e+00 -7.652928e-18 1.273243e-17 2.806728e-17 2.000000e-01  6.250000e-02  
-1.500000e+00  -1.750000e+00  -1.750000e+00  0  472 0  -9.365922e-02 -9.365922e-02 -9.184621e-18   0.000000e+00 0.000000e+00 0.000000e+00 0.000000e+00 0.000000e+00 0.000000e+00 0.000000e+00 0.000000e+00 0.000000e+00 -2.354012e-18 9.998228e-18 6.403569e-17 2.000000e-01  6.250000e-02  
-1.250000e+00  -2.000000e+00  -2.000000e+00  0  2083 0  -9.365922e-02 -9.365922e-02 3.674166e-17   0.000000e+00 0.000000e+00 0.000000e+00 0.000000e+00 0.000000e+00 0.000000e+00 0.000000e+00 0.000000e+00 0.000000e+00 7.956759e-18 -4.586196e-18 9.425105e-17 2.000000e-01  6.250000e-02  
-1.250000e+00  -1.750000e+00  -2.000000e+00  0  2091 0  -1.417893e-16 1.268833e-16 8.936492e-19   0.000000e+00 0.000000e+00 0.000000e+00 0.000000e+00 0.000000e+00 0.000000e+00 0.000000e+00 0.000000e+00 0.000000e+00 -3.819842e-18 -8.613162e-18 4.511636e-17 2.000000e-01  6.250000e-02  
-1.250000e+00  -2.000000e+00  -1.750000e+00  0  2187 0  -9.365922e-02 -9.365922e-02 -2.457601e-17   0.000000e+00 0.000000e+00 0.000000e+00 0.000000e+00 0.000000e+00 0.000000e+00 0.000000e+00 0.000000e+00 0.000000e+00 -1.744674e-17 -1.519411e-17 8.118641e-17 2.000000e-01  6.250000e-02  
-1.250000e+00  -1.750000e+00  -1.750000e+00  0  2195 0  -2.049744e-16 7.227374e-17 -3.023016e-17   0.000000e+00 0.000000e+00 0.000000e+00 0.000000e+00 0.000000e+00 0.000000e+00 0.000000e+00 0.000000e+00 0.000000e+00 -8.000511e-18 -1.379341e-18 1.570738e-17 2.000000e-01  6.250000e-02  
-1.000000e+00  -2.000000e+00  -2.000000e+00  0  2084 0  -4.281803e-16 -4.786335e-16 -8.790368e-18   0.000000e+00 0.000000e+00 0.000000e+00 0.000000e+00 0.000000e+00 0.000000e+00 0.000000e+00 0.000000e+00 0.000000e+00 1.158737e-17 1.109041e-19 -8.822695e-18 2.000000e-01  6.250000e-02  
-1.000000e+00  -1.750000e+00  -2.000000e+00  0  2092 0  9.365922e-02 9.365922e-02 1.814636e-17   0.000000e+00 0.000000e+00 0.000000e+00 0.000000e+00 0.000000e+00 0.000000e+00 0.000000e+00 0.000000e+00 0.000000e+00 1.372610e-17 -1.512043e-17 9.188613e-18 2.000000e-01  6.250000e-02  
-1.000000e+00  -2.000000e+00  -1.750000e+00  0  2188 0  -3.156751e-16 -3.111261e-16 3.942324e-17   0.000000e+00 0.000000e+00 0.000000e+00 0.000000e+00 0.000000e+00 0.000000e+00 0.000000e+00 0.000000e+00 0.000000e+00 -8.642553e-18 -1.527270e-17 2.683400e-18 2.000000e-01  6.250000e-02  
-1.000000e+00  -1.750000e+00  -1.750000e+00  0  2196 0  9.365922e-02 9.365922e-02 1.078282e-17   0.000000e+00 0.000000e+00 0.000000e+00 0.000000e+00 0.000000e+00 0.000000e+00 0.000000e+00 0.000000e+00 0.000000e+00 -4.377370e-18 -8.100592e-18 -1.389134e-18 2.000000e-01  6.250000e-02  
-7.500000e-01  -2.000000e+00  -2.000000e+00  0  2085 0  9.365922e-02 9.365922e-02 1.040335e-17   0.000000e+00 0.000000e+00 0.000000e+00 0.000000e+00 0.000000e+00 0.000000e+00 0.000000e+00 0.000000e+00 0.000000e+00 1.688917e-19 -3.117651e-21 -1.179612e-16 2.000000e-01  6.250000e-02  
-7.500000e-01  -1.750000e+00  -2.000000e+00  0  2093 0  1.141598e-01 1.141598e-01 1.304635e-17   0.000000e+00 0.000000e+00 0.000000e+00 0.000000e+00 0.000000e+00 0.000000e+00 0.000000e+00 0.000000e+00 0.000000e+00 1.566651e-17 -9.612258e-18 -1.280036e-17 2.000000e-01  6.250000e-02  
-7.500000e-01  -2.000000e+00  -1.750000e+00  0  2189 0  9.365922e-02 9.365922e-02 4.646530e-18   0.000000e+00 0.000000e+00 0.000000e+00 0.000000e+00 0.000000e+00 0.000000e+00 0.000000e+00 0.000000e+00 0.000000e+00 5.541299e-18 4.196230e-18 -1.137396e-16 2.000000e-01  6.250000e-02  
-7.500000e-01  -1.750000e+00  -1.750000e+00  0  2197 0  1.141598e-01 1.141598e-01 7.632961e-18   0.000000e+00 0.000000e+00 0.000000e+00 0.000000e+00 0.000000e+00 0.000000e+00 0.000000e+00 0.000000e+00 0.000000e+00 1.756010e-18 -2.295274e-18 -1.558541e-19 2.000000e-01  6.250000e-02  
-5.000000e-01  -2.000000e+00  -2.000000e+00  0  2086 0  1.141598e-01 1.141598e-01 -1.664721e-17   0.000000e+00 0.000000e+00 0.000000e+00 0.000000e+00 0.000000e+00 0.000000e+00 0.000000e+00 0.000000e+00 0.000000e+00 -7.177769e-18 -7.732006e-18 -3.661215e-17 2.000000e-01  6.250000e-02  
-5.000000e-01  -1.750000e+00  -2.000000e+00  0  2094 0  7.459812e-02 7.459812e-02 -3.521658e-17   0.000000e+00 0.000000e+00 0.000000e+00 0.000000e+00 0.000000e+00 0.000000e+00 0.000000e+00 0.000000e+00 0.000000e+00 6.310672e-18 -1.074852e-18 5.468445e-18 2.000000e-01  6.250000e-02  
-5.000000e-01  -2.000000e+00  -1.750000e+00  0  2190 0  1.141598e-01 1.141598e-01 3.029509e-18   0.000000e+00 0.000000e+00 0.000000e+00 0.000000e+00 0.000000e+00 0.000000e+00 0.000000e+00 0.000000e+00 0.000000e+00 8.645041e-18 5.029727e-18 -4.304283e-17 2.000000e-01  6.250000e-02  
-5.000000e-01  -1.750000e+00  -1.750000e+00  0  2198 0  7.459812e-02 7.459812e-02 1.911834e-17   0.000000e+00 0.000000e+00 0.000000e+00 0.000000e+00 0.000000e+00 0.000000e+00 0.000000e+00 0.000000e+00 0.000000e+00 5.255463e-18 4.724841e-18 1.713039e-17 2.000000e-01  6.250000e-02  
-2.500000e-01  -2.000000e+00  -2.000000e+00  0  2087 0  7.459812e-02 7.459812e-02 2.297374e-17   0.000000e+00 0.000000e+00 0.000000e+00 0.000000e+00 0.000000e+00 0.000000e+00 0.000000e+00 0.000000e+00 0.000000e+00 -2.791538e-18 -1.034937e-17 1.036768e-18 2.000000e-01  6.250000e-02  
-2.500000e-01  -1.750000e+00  -2.000000e+00  0  2095 0  2.424679e-17 1.915670e-16 -3.138776e-17   0.000000e+00 0.000000e+00 0.000000e+00 0.000000e+00 0.000000e+00 0.000000e+00 0.000000e+00 0.000000e+00 0.000000e+00 -4.527121e-18 4.301770e-19 2.097931e-17 2.000000e-01  6.250000e-02  
-2.500000e-01  -2.000000e+00  -1.750000e+00  0  2191 0  7.459812e-02 7.459812e-02 1.797829e-18   0.000000e+00 0.000000e+00 0.000000e+00 0.000000e+00 0.000000e+00 0.000000e+00 0.000000e+00 0.000000e+00 0.000000e+00 2.986390e-18 -1.065761e-18 -2.062695e-17 2.000000e-01  6.250000e-02  
-2.500000e-01  -1.750000e+00  -1.750000e+00  0  2199 0  1.672764e-16 1.268895e-16 -3.079106e-17   0.000000e+00 0.000000e+00 0.000000e+00 0.000000e+00 0.000000e+00 0.000000e+00 0.000000e+00 0.000000e+00 0.000000e+00 1.894457e-18 1.041745e-17 2.066760e-17 2.000000e-01  6.250000e-02  
0.000000e+00  -2.000000e+00  -2.000000e+00  0  2088 0  -2.085119e-16 -1.443272e-16 3.117839e-17   0.000000e+00 0.000000e+00 0.000000e+00 0.000000e+00 0.000000e+00 0.000000e+00 0.000000e+00 0.000000e+00 0.000000e+00 -1.201002e-18 1.899859e-19 6.807434e-17 2.000000e-01  6.250000e-02  
0.000000e+00  -1.750000e+00  -2.000000e+00  0  2096 0  -7.459812e-02 -7.459812e-02 -3.031326e-17   0.000000e+00 0.000000e+00 0.000000e+00 0.000000e+00 0.000000e+00 0.000000e+00 0.000000e+00 0.000000e+00 0.000000e+00 -2.435363e-18 -4.326954e-18 1.191267e-17 2.000000e-01  6.250000e-02  
0.000000e+00  -2.000000e+00  -1.750000e+00  0  2192 0  -6.892615e-17 -5.033396e-17 -1.663081e-17   0.000000e+00 0.000000e+00 0.000000e+00 0.000000e+00 0.000000e+00 0.000000e+00 0.000000e+00 0.000000e+00 0.000000e+00 1.139582e-17 -1.290310e-17 6.673264e-17 2.000000e-01  6.250000e-02  
0.000000e+00  -1.750000e+00  -1.750000e+00  0  2200 0  -7.459812e-02 -7.459812e-02 1.988947e-17   0.000000e+00 0.000000e+00 0.000000e+00 0.000000e+00 0.000000e+00 0.000000e+00 0.000000e+00 0.000000e+00 0.000000e+00 -1.402241e-18 -8.250961e-18 4.391019e-18 2.000000e-01  6.250000e-02  
-1.750000e+00  -1.500000e+00  -2.000000e+00  0  339 0  -9.365922e-02 -9.365922e-02 -5.156336e-17   0.000000e+00 0.000000e+00 0.000000e+00 0.000000e+00 0.000000e+00 0.000000e+00 0.000000e+00 0.000000e+00 0.000000e+00 -6.835070e-18 -1.383570e-17 -6.636673e-17 2.000000e-01  6.250000e-02  
-2.000000e+00  -1.500000e+00  -2.000000e+00  0  338 0  -1.141598e-01 -1.141598e-01 -5.186104e-18   0.000000e+00 0.000000e+00 0.000000e+00 0.000000e+00 0.000000e+00 0.000000e+00 0.000000e+00 0.000000e+00 0.000000e+00 -4.516894e-18 4.783522e-18 3.794708e-18 2.000000e-01  6.250000e-02  
-1.750000e+00  -1.500000e+00  -1.750000e+00  0  482 0  -9.365922e-02 -9.365922e-02 -1.761797e-18   0.000000e+00 0.000000e+00 0.000000e+00 0.000000e+00 0.000000e+00 0.000000e+00 0.000000e+00 0.000000e+00 0.000000e+00 7.873663e-18 4.546761e-18 -6.188762e-17 2.000000e-01  6.250000e-02  
-2.000000e+00  -1.500000e+00  -1.750000e+00  0  481 0  -1.141598e-01 -1.141598e-01 -1.047270e-18   0.000000e+00 0.000000e+00 0.000000e+00 0.000000e+00 0.000000e+00 0.000000e+00 0.000000e+00 0.000000e+00 0.000000e+00 1.274822e-17 1.919402e-17 4.601083e-18 2.000000e-01  6.250000e-02  
-1.500000e+00  -1.500000e+00  -2.000000e+00  0  340 0  2.446273e-16 3.121678e-16 -1.604047e-18   0.000000e+00 0.000000e+00 0.000000e+00 0.000000e+00 0.000000e+00 0.000000e+00 0.000000e+00 0.000000e+00 0.000000e+00 -7.983435e-18 -1.324106e-17 -2.462494e-17 2.000000e-01  6.250000e-02  
-1.500000e+00  -1.500000e+00  -1.750000e+00  0  483 0  2.658012e-16 2.726766e-16 -1.992261e-17   0.000000e+00 0.000000e+00 0.000000e+00 0.000000e+00 0.000000e+00 0.000000e+00 0.000000e+00 0.000000e+00 0.000000e+00 -1.414114e-18 2.008828e-18 -2.271404e-17 2.000000e-01  6.250000e-02  
-1.250000e+00  -1.500000e+00  -2.000000e+00  0  2099 0  9.365922e-02 9.365922e-02 -6.432526e-18   0.000000e+00 0.000000e+00 0.000000e+00 0.000000e+00 0.000000e+00 0.000000e+00 0.000000e+00 0.000000e+00 0.000000e+00 2.707440e-18 -1.002316e-17 -6.151492e-17 2.000000e-01  6.250000e-02  
-1.250000e+00  -1.500000e+00  -1.750000e+00  0  2203 0  9.365922e-02 9.365922e-02 1.828765e-17   0.000000e+00 0.000000e+00 0.000000e+00 0.000000e+00 0.000000e+00 0.000000e+00 0.000000e+00 0.000000e+00 0.000000e+00 -1.258050e-17 5.016264e-18 -6.007835e-17 2.000000e-01  6.250000e-02  
-1.000000e+00  -1.500000e+00  -2.000000e+00  0  2100 0  1.141598e-01 1.141598e-01 -2.563685e-17   0.000000e+00 0.000000e+00 0.000000e+00 0.000000e+00 0.000000e+00 0.000000e+00 0.000000e+00 0.000000e+00 0.000000e+00 1.064218e-17 -1.827524e-17 -1.114018e-17 2.000000e-01  6.250000e-02  
-1.000000e+00  -1.500000e+00  -1.750000e+00  0  2204 0  1.141598e-01 1.141598e-01 4.738052e-18   0.000000e+00 0.000000e+00 0.000000e+00 0.000000e+00 0.000000e+00 0.000000e+00 0.000000e+00 0.000000e+00 0.000000e+00 -5.920030e-18 -2.565635e-18 -2.420481e-17 2.000000e-01  6.250000e-02  
-7.500000e-01  -1.500000e+00  -2.000000e+00  0  2101 0  7.459812e-02 7.459812e-02 1.101133e-18   0.000000e+00 0.000000e+00 0.000000e+00 0.000000e+00 0.000000e+00 0.000000e+00 0.000000e+00 0.000000e+00 0.000000e+00 1.391872e-17 -2.382613e-17 7.845558e-17 2.000000e-01  6.250000e-02  
-7.500000e-01  -1.500000e+00  -1.750000e+00  0  2205 0  7.459812e-02 7.459812e-02 -1.322530e-17   0.000000e+00 0.000000e+00 0.000000e+00 0.000000e+00 0.000000e+00 0.000000e+00 0.000000e+00 0.000000e+00 0.000000e+00 6.065319e-18 -4.997815e-19 7.666665e-17 2.000000e-01  6.250000e-02  
-5.000000e-01  -1.500000e+00  -2.000000e+00  0  2102 0  1.208788e-16 3.621644e-16 3.110877e-17   0.000000e+00 0.000000e+00 0.000000e+00 0.000000e+00 0.000000e+00 0.000000e+00 0.000000e+00 0.000000e+00 0.000000e+00 1.135336e-17 -1.771882e-17 -4.973777e-18 2.000000e-01  6.250000e-02  
-5.000000e-01  -1.500000e+00  -1.750000e+00  0  2206 0  2.865073e-16 2.928205e-16 3.647469e-17   0.000000e+00 0.000000e+00 0.000000e+00 0.000000e+00 0.000000e+00 0.000000e+00 0.000000e+00 0.000000e+00 0.000000e+00 3.033766e-18 5.828803e-18 1.695421e-17 2.000000e-01  6.250000e-02  
-2.500000e-01  -1.500000e+00  -2.000000e+00  0  2103 0  -7.459812e-02 -7.459812e-02 4.108901e-17   0.000000e+00 0.000000e+00 0.000000e+00 0.000000e+00 0.000000e+00 0.000000e+00 0.000000e+00 0.000000e+00 0.000000e+00 -1.673229e-18 2.246664e-18 -2.429968e-17 2.000000e-01  6.250000e-02  
-2.500000e-01  -1.500000e+00  -1.750000e+00  0  2207 0  -7.459812e-02 -7.459812e-02 -3.698070e-17   0.000000e+00 0.000000e+00 0.000000e+00 0.000000e+00 0.000000e+00 0.000000e+00 0.000000e+00 0.000000e+00 0.000000e+00 -3.385372e-18 7.673899e-18 -8.246713e-18 2.000000e-01  6.250000e-02  
0.000000e+00  -1.500000e+00  -2.000000e+00  0  2104 0  -1.141598e-01 -1.141598e-01 -5.180428e-18   0.000000e+00 0.000000e+00 0.000000e+00 0.000000e+00 0.000000e+00 0.000000e+00 0.000000e+00 0.000000e+00 0.000000e+00 -3.458879e-18 4.732048e-18 -1.307819e-17 2.000000e-01  6.250000e-02  
0.000000e+00  -1.500000e+00  -1.750000e+00  0  2208 0  -1.141598e-01 -1.141598e-01 -1.952801e-17   0.000000e+00 0.000000e+00 0.000000e+00 0.000000e+00 0.000000e+00 0.000000e+00 0.000000e+00 0.000000e+00 0.000000e+00 -1.209890e-17 -2.492092e-18 -2.725413e-17 2.000000e-01  6.250000e-02  
-1.750000e+00  -1.250000e+00  -2.000000e+00  0  350 0  1.648624e-17 -9.328509e-17 -4.580876e-18   0.000000e+00 0.000000e+00 0.000000e+00 0.000000e+00 0.000000e+00 0.000000e+00 0.000000e+00 0.000000e+00 0.000000e+00 9.322538e-18 -7.576193e-18 -6.258557e-17 2.000000e-01  6.250000e-02  
-2.000000e+00  -1.250000e+00  -2.000000e+00  0  349 0  -9.365922e-02 -9.365922e-02 -4.744554e-18   0.000000e+00 0.000000e+00 0.000000e+00 0.000000e+00 0.000000e+00 0.000000e+00 0.000000e+00 0.000000e+00 0.000000e+00 1.104131e-17 2.789490e-19 -6.839283e-17 2.000000e-01  6.250000e-02  
-1.750000e+00  -1.250000e+00  -1.750000e+00  0  493 0  1.296413e-16 -1.964756e-17 -1.818145e-17   0.000000e+00 0.000000e+00 0.000000e+00 0.000000e+00 0.000000e+00 0.000000e+00 0.000000e+00 0.000000e+00 0.000000e+00 4.989854e-18 -2.868309e-18 -5.026632e-17 2.000000e-01  6.250000e-02  
-2.000000e+00  -1.250000e+00  -1.750000e+00  0  492 0  -9.365922e-02 -9.365922e-02 -3.024497e-17   0.000000e+00 0.000000e+00 0.000000e+00 0.000000e+00 0.000000e+00 0.000000e+00 0.000000e+00 0.000000e+00 0.000000e+00 8.616323e-18 1.039348e-17 -6.923308e-17 2.000000e-01  6.250000e-02  
-1.500000e+00  -1.250000e+00  -2.000000e+00  0  351 0  9.365922e-02 9.365922e-02 -8.359715e-19   0.000000e+00 0.000000e+00 0.000000e+00 0.000000e+00 0.000000e+00 0.000000e+00 0.000000e+00 0.000000e+00 0.000000e+00 1.175231e-17 -7.861439e-18 2.177891e-17 2.000000e-01  6.250000e-02  
-1.500000e+00  -1.250000e+00  -1.750000e+00  0  494 0  9.365922e-02 9.365922e-02 6.199641e-18   0.000000e+00 0.000000e+00 0.000000e+00 0.000000e+00 0.000000e+00 0.000000e+00 0.000000e+00 0.000000e+00 0.000000e+00 -1.111891e-17 -3.395025e-18 3.473513e-17 2.000000e-01  6.250000e-02  
-1.250000e+00  -1.250000e+00  -2.000000e+00  0  2107 0  1.141598e-01 1.141598e-01 3.742463e-17   0.000000e+00 0.000000e+00 0.000000e+00 0.000000e+00 0.000000e+00 0.000000e+00 0.000000e+00 0.000000e+00 0.000000e+00 1.191377e-17 -1.333771e-17 2.621059e-17 2.000000e-01  6.250000e-02  
-1.250000e+00  -1.250000e+00  -1.750000e+00  0  2211 0  1.141598e-01 1.141598e-01 -9.945938e-18   0.000000e+00 0.000000e+00 0.000000e+00 0.000000e+00 0.000000e+00 0.000000e+00 0.000000e+00 0.000000e+00 0.000000e+00 -1.963337e-17 4.188042e-18 2.944964e-17 2.000000e-01  6.250000e-02  
-1.000000e+00  -1.250000e+00  -2.000000e+00  0  2108 0  7.459812e-02 7.459812e-02 1.076829e-18   0.000000e+00 0.000000e+00 0.000000e+00 0.000000e+00 0.000000e+00 0.000000e+00 0.000000e+00 0.000000e+00 0.000000e+00 -7.143145e-19 -1.386870e-17 -5.271933e-18 2.000000e-01  6.250000e-02  
-1.000000e+00  -1.250000e+00  -1.750000e+00  0  2212 0  7.459812e-02 7.459812e-02 -5.373365e-18   0.000000e+00 0.000000e+00 0.000000e+00 0.000000e+00 0.000000e+00 0.000000e+00 0.000000e+00 0.000000e+00 0.000000e+00 -1.222023e-18 1.925004e-19 -1.959695e-17 2.000000e-01  6.250000e-02  
-7.500000e-01  -1.250000e+00  -2.000000e+00  0  2109 0  -2.908691e-17 -1.090199e-16 8.951472e-19   0.000000e+00 0.000000e+00 0.000000e+00 0.000000e+00 0.000000e+00 0.000000e+00 0.000000e+00 0.000000e+00 0.000000e+00 -9.115353e-18 -1.620592e-17 1.477225e-17 2.000000e-01  6.250000e-02  
-7.500000e-01  -1.250000e+00  -1.750000e+00  0  2213 0  -8.314722e-17 -1.180085e-16 -5.666039e-17   0.000000e+00 0.000000e+00 0.000000e+00 0.000000e+00 0.000000e+00 0.000000e+00 0.000000e+00 0.000000e+00 0.000000e+00 1.417773e-17 -6.125270e-18 1.694066e-17 2.000000e-01  6.250000e-02  
-5.000000e-01  -1.250000e+00  -2.000000e+00  0  2110 0  -7.459812e-02 -7.459812e-02 2.494704e-17   0.000000e+00 0.000000e+00 0.000000e+00 0.000000e+00 0.000000e+00 0.000000e+00 0.000000e+00 0.000000e+00 0.000000e+00 -3.801537e-18 -1.583441e-17 -2.337133e-17 2.000000e-01  6.250000e-02  
-5.000000e-01  -1.250000e+00  -1.750000e+00  0  2214 0  -7.459812e-02 -7.459812e-02 2.472814e-17   0.000000e+00 0.000000e+00 0.000000e+00 0.000000e+00 0.000000e+00 0.000000e+00 0.000000e+00 0.000000e+00 0.000000e+00 4.922420e-18 -1.146798e-18 -2.451652e-17 2.000000e-01  6.250000e-02  
-2.500000e-01  -1.250000e+00  -2.000000e+00  0  2111 0  -1.141598e-01 -1.141598e-01 1.399064e-17   0.000000e+00 0.000000e+00 0.000000e+00 0.000000e+00 0.000000e+00 0.000000e+00 0.000000e+00 0.000000e+00 0.000000e+00 1.365338e-18 1.033102e-18 -1.026943e-16 2.000000e-01  6.250000e-02  
-2.500000e-01  -1.250000e+00  -1.750000e+00  0  2215 0  -1.141598e-01 -1.141598e-01 -1.637212e-17   0.000000e+00 0.000000e+00 0.000000e+00 0.000000e+00 0.000000e+00 0.000000e+00 0.000000e+00 0.000000e+00 0.000000e+00 2.737289e-19 1.020494e-17 -1.112730e-16 2.000000e-01  6.250000e-02  
0.000000e+00  -1.250000e+00  -2.000000e+00  0  2112 0  -9.365922e-02 -9.365922e-02 -2.171315e-17   0.000000e+00 0.000000e+00 0.000000e+00 0.000000e+00 0.000000e+00 0.000000e+00 0.000000e+00 0.000000e+00 0.000000e+00 -2.599271e-18 7.690962e-18 -8.859287e-17 2.000000e-01  6.250000e-02  
0.000000e+00  -1.250000e+00  -1.750000e+00  0  2216 0  -9.365922e-02 -9.365922e-02 -2.428561e-17   0.000000e+00 0.000000e+00 0.000000e+00 0.000000e+00 0.000000e+00 0.000000e+00 0.000000e+00 0.000000e+00 0.000000e+00 -6.835626e-19 6.946174e-18 -8.055622e-17 2.000000e-01  6.250000e-02  
-1.750000e+00  -1.000000e+00  -2.000000e+00  0  361 0  9.365922e-02 9.365922e-02 -3.811796e-17   0.000000e+00 0.000000e+00 0.000000e+00 0.000000e+00 0.000000e+00 0.000000e+00 0.000000e+00 0.000000e+00 0.000000e+00 1.400372e-17 -2.392484e-18 -3.771668e-17 2.000000e-01  6.250000e-02  
-2.000000e+00  -1.000000e+00  -2.000000e+00  0  360 0  -1.255643e-16 -4.359407e-16 4.673346e-18   0.000000e+00 0.000000e+00 0.000000e+00 0.000000e+00 0.000000e+00 0.000000e+00 0.000000e+00 0.000000e+00 0.000000e+00 9.907914e-18 -5.039430e-21 2.408962e-17 2.000000e-01  6.250000e-02  
-1.750000e+00  -1.000000e+00  -1.750000e+00  0  504 0  9.365922e-02 9.365922e-02 1.759621e-17   0.000000e+00 0.000000e+00 0.000000e+00 0.000000e+00 0.000000e+00 0.000000e+00 0.000000e+00 0.000000e+00 0.000000e+00 8.236732e-18 -1.005125e-17 -4.774555e-17 2.000000e-01  6.250000e-02  
-2.000000e+00  -1.000000e+00  -1.750000e+00  0  503 0  -2.183758e-16 -3.707572e-16 6.006886e-17   0.000000e+00 0.000000e+00 0.000000e+00 0.000000e+00 0.000000e+00 0.000000e+00 0.000000e+00 0.000000e+00 0.000000e+00 2.278559e-18 -1.928580e-18 2.757939e-17 2.000000e-01  6.250000e-02  
-1.500000e+00  -1.000000e+00  -2.000000e+00  0  362 0  1.141598e-01 1.141598e-01 -3.367351e-18   0.000000e+00 0.000000e+00 0.000000e+00 0.000000e+00 0.000000e+00 0.000000e+00 0.000000e+00 0.000000e+00 0.000000e+00 2.532550e-17 -4.837442e-18 -5.285486e-18 2.000000e-01  6.250000e-02  
-1.500000e+00  -1.000000e+00  -1.750000e+00  0  505 0  1.141598e-01 1.141598e-01 -3.149327e-18   0.000000e+00 0.000000e+00 0.000000e+00 0.000000e+00 0.000000e+00 0.000000e+00 0.000000e+00 0.000000e+00 0.000000e+00 5.432227e-18 -1.092970e-17 -1.307819e-18 2.000000e-01  6.250000e-02  
-1.250000e+00  -1.000000e+00  -2.000000e+00  0  2115 0  7.459812e-02 7.459812e-02 2.145300e-17   0.000000e+00 0.000000e+00 0.000000e+00 0.000000e+00 0.000000e+00 0.000000e+00 0.000000e+00 0.000000e+00 0.000000e+00 1.658469e-17 -5.069735e-18 2.084379e-17 2.000000e-01  6.250000e-02  
-1.250000e+00  -1.000000e+00  -1.750000e+00  0  2219 0  7.459812e-02 7.459812e-02 -3.746826e-17   0.000000e+00 0.000000e+00 0.000000e+00 0.000000e+00 0.000000e+00 0.000000e+00 0.000000e+00 0.000000e+00 0.000000e+00 9.895994e-18 -1.090779e-18 2.930056e-17 2.000000e-01  6.250000e-02  
-1.000000e+00  -1.000000e+00  -2.000000e+00  0  2116 0  -1.219078e-16 -7.037509e-17 -1.930543e-17   0.000000e+00 0.000000e+00 0.000000e+00 0.000000e+00 0.000000e+00 0.000000e+00 0.000000e+00 0.000000e+00 0.000000e+00 -2.275191e-18 -8.840319e-18 -1.252254e-17 2.000000e-01  6.250000e-02  
-1.000000e+00  -1.000000e+00  -1.750000e+00  0  2220 0  -2.059040e-16 -1.026601e-17 2.412241e-17   0.000000e+00 0.000000e+00 0.000000e+00 0.000000e+00 0.000000e+00 0.000000e+00 0.000000e+00 0.000000e+00 0.000000e+00 1.469074e-17 -5.583493e-18 8.714275e-18 2.000000e-01  6.250000e-02  
-7.500000e-01  -1.000000e+00  -2.000000e+00  0  2117 0  -7.459812e-02 -7.459812e-02 1.007696e-17   0.000000e+00 0.000000e+00 0.000000e+00 0.000000e+00 0.000000e+00 0.000000e+00 0.000000e+00 0.000000e+00 0.000000e+00 -1.974300e-17 -1.419329e-17 -8.350390e-17 2.000000e-01  6.250000e-02  
-7.500000e-01  -1.000000e+00  -1.750000e+00  0  2221 0  -7.459812e-02 -7.459812e-02 3.345227e-18   0.000000e+00 0.000000e+00 0.000000e+00 0.000000e+00 0.000000e+00 0.000000e+00 0.000000e+00 0.000000e+00 0.000000e+00 9.656586e-18 -1.577847e-17 -6.018000e-17 2.000000e-01  6.250000e-02  
-5.000000e-01  -1.000000e+00  -2.000000e+00  0  2118 0  -1.141598e-01 -1.141598e-01 -1.099683e-17   0.000000e+00 0.000000e+00 0.000000e+00 0.000000e+00 0.000000e+00 0.000000e+00 0.000000e+00 0.000000e+00 0.000000e+00 -1.250344e-17 -6.772889e-18 -2.894142e-17 2.000000e-01  6.250000e-02  
-5.000000e-01  -1.000000e+00  -1.750000e+00  0  2222 0  -1.141598e-01 -1.141598e-01 2.878908e-17   0.000000e+00 0.000000e+00 0.000000e+00 0.000000e+00 0.000000e+00 0.000000e+00 0.000000e+00 0.000000e+00 0.000000e+00 5.003890e-18 -5.996109e-18 -4.138942e-17 2.000000e-01  6.250000e-02  
-2.500000e-01  -1.000000e+00  -2.000000e+00  0  2119 0  -9.365922e-02 -9.365922e-02 -4.573022e-17   0.000000e+00 0.000000e+00 0.000000e+00 0.000000e+00 0.000000e+00 0.000000e+00 0.000000e+00 0.000000e+00 0.000000e+00 7.146957e-18 -2.788449e-18 -3.969535e-17 2.000000e-01  6.250000e-02  
-2.500000e-01  -1.000000e+00  -1.750000e+00  0  2223 0  -9.365922e-02 -9.365922e-02 9.343791e-18   0.000000e+00 0.000000e+00 0.000000e+00 0.000000e+00 0.000000e+00 0.000000e+00 0.000000e+00 0.000000e+00 0.000000e+00 8.685872e-18 1.704798e-17 -3.972923e-17 2.000000e-01  6.250000e-02  
0.000000e+00  -1.000000e+00  -2.000000e+00  0  2120 0  -2.541217e-16 -2.453882e-16 -2.643738e-17   0.000000e+00 0.000000e+00 0.000000e+00 0.000000e+00 0.000000e+00 0.000000e+00 0.000000e+00 0.000000e+00 0.000000e+00 7.061085e-18 8.705447e-19 -5.197394e-17 2.000000e-01  6.250000e-02  
0.000000e+00  -1.000000e+00  -1.750000e+00  0  2224 0  -1.392669e-16 -4.215917e-16 -2.278055e-17   0.000000e+00 0.000000e+00 0.000000e+00 0.000000e+00 0.000000e+00 0.000000e+00 0.000000e+00 0.000000e+00 0.000000e+00 3.161483e-18 6.822238e-18 -3.207883e-17 2.000000e-01  6.250000e-02  
-1.750000e+00  -7.500000e-01  -2.000000e+00  0  372 0  1.141598e-01 1.141598e-01 3.516922e-17   0.000000e+00 0.000000e+00 0.000000e+00 0.000000e+00 0.000000e+00 0.000000e+00 0.000000e+00 0.000000e+00 0.000000e+00 6.833219e-19 -2.575633e-19 1.190590e-17 2.000000e-01  6.250000e-02  
-2.000000e+00  -7.500000e-01  -2.000000e+00  0  371 0  9.365922e-02 9.365922e-02 4.007917e-17   0.000000e+00 0.000000e+00 0.000000e+00 0.000000e+00 0.000000e+00 0.000000e+00 0.000000e+00 0.000000e+00 0.000000e+00 -9.722828e-18 -1.001885e-17 1.122149e-16 2.000000e-01  6.250000e-02  
-1.750000e+00  -7.500000e-01  -1.750000e+00  0  515 0  1.141598e-01 1.141598e-01 -5.193432e-17   0.000000e+00 0.000000e+00 0.000000e+00 0.000000e+00 0.000000e+00 0.000000e+00 0.000000e+00 0.000000e+00 0.000000e+00 7.865537e-18 -4.205039e-18 -3.523657e-18 2.000000e-01  6.250000e-02  
-2.000000e+00  -7.500000e-01  -1.750000e+00  0  514 0  9.365922e-02 9.365922e-02 -1.235695e-17   0.000000e+00 0.000000e+00 0.000000e+00 0.000000e+00 0.000000e+00 0.000000e+00 0.000000e+00 0.000000e+00 0.000000e+00 4.716905e-18 3.784234e-18 1.253202e-16 2.000000e-01  6.250000e-02  
-1.500000e+00  -7.500000e-01  -2.000000e+00  0  373 0  7.459812e-02 7.459812e-02 2.049987e-18   0.000000e+00 0.000000e+00 0.000000e+00 0.000000e+00 0.000000e+00 0.000000e+00 0.000000e+00 0.000000e+00 0.000000e+00 1.469234e-17 -8.723592e-19 -6.612278e-17 2.000000e-01  6.250000e-02  
-1.500000e+00  -7.500000e-01  -1.750000e+00  0  516 0  7.459812e-02 7.459812e-02 -9.543310e-18   0.000000e+00 0.000000e+00 0.000000e+00 0.000000e+00 0.000000e+00 0.000000e+00 0.000000e+00 0.000000e+00 0.000000e+00 1.138886e-17 -9.010041e-18 -6.924664e-17 2.000000e-01  6.250000e-02  
-1.250000e+00  -7.500000e-01  -2.000000e+00  0  2123 0  -1.053941e-16 -6.607823e-17 -7.206420e-19   0.000000e+00 0.000000e+00 0.000000e+00 0.000000e+00 0.000000e+00 0.000000e+00 0.000000e+00 0.000000e+00 0.000000e+00 9.227931e-18 -1.034580e-18 -1.127570e-17 2.000000e-01  6.250000e-02  
-1.250000e+00  -7.500000e-01  -1.750000e+00  0  2227 0  -1.269890e-16 7.657194e-17 3.591726e-17   0.000000e+00 0.000000e+00 0.000000e+00 0.000000e+00 0.000000e+00 0.000000e+00 0.000000e+00 0.000000e+00 0.000000e+00 1.590183e-17 -4.708585e-18 -4.038653e-18 2.000000e-01  6.250000e-02  
-1.000000e+00  -7.500000e-01  -2.000000e+00  0  2124 0  -7.459812e-02 -7.459812e-02 -8.640556e-18   0.000000e+00 0.000000e+00 0.000000e+00 0.000000e+00 0.000000e+00 0.000000e+00 0.000000e+00 0.000000e+00 0.000000e+00 -1.000095e-17 -5.219152e-18 9.354632e-17 2.000000e-01  6.250000e-02  
-1.000000e+00  -7.500000e-01  -1.750000e+00  0  2228 0  -7.459812e-02 -7.459812e-02 1.755853e-17   0.000000e+00 0.000000e+00 0.000000e+00 0.000000e+00 0.000000e+00 0.000000e+00 0.000000e+00 0.000000e+00 0.000000e+00 1.702067e-17 -7.137025e-18 9.936035e-17 2.000000e-01  6.250000e-02  
-7.500000e-01  -7.500000e-01  -2.000000e+00  0  2125 0  -1.141598e-01 -1.141598e-01 -1.084476e-17   0.000000e+00 0.000000e+00 0.000000e+00 0.000000e+00 0.000000e+00 0.000000e+00 0.000000e+00 0.000000e+00 0.000000e+00 -2.112406e-17 -1.691046e-17 1.901420e-17 2.000000e-01  6.250000e-02  
-7.500000e-01  -7.500000e-01  -1.750000e+00  0  2229 0  -1.141598e-01 -1.141598e-01 1.004108e-18   0.000000e+00 0.000000e+00 0.000000e+00 0.000000e+00 0.000000e+00 0.000000e+00 0.000000e+00 0.000000e+00 0.000000e+00 6.116951e-18 -8.134678e-18 1.130958e-17 2.000000e-01  6.250000e-02  
-5.000000e-01  -7.500000e-01  -2.000000e+00  0  2126 0  -9.365922e-02 -9.365922e-02 -5.835274e-18   0.000000e+00 0.000000e+00 0.000000e+00 0.000000e+00 0.000000e+00 0.000000e+00 0.000000e+00 0.000000e+00 0.000000e+00 -2.930759e-18 -9.529401e-18 1.595132e-17 2.000000e-01  6.250000e-02  