VARIABLES="X", "Y", "Z", "Maximum Refinment Level", "Temp_ID", "Thread","Ex (corner node)","Ey (corner node)","Ez (corner node)","Bx (center node)","By (center node)","Bz (center node)", "Local Time Step" , "log10(Local Particle Weight)" 
ZONE N=4913, E=4096, DATAPACKING=POINT, ZONETYPE=FEBRICK
-2.000000e+00  -2.000000e+00  -2.000000e+00  0  1064 0  -2.036924e-05 3.083071e-07 -2.829365e-05   5.599758e-11 -7.785127e-11 2.976205e-10 2.000000e-01  6.250000e-02  
-1.750000e+00  -2.000000e+00  -2.000000e+00  0  1065 0  1.018185e+01 -1.009070e-06 4.907637e-06   2.525539e-09 -2.498660e-06 -4.452938e-07 2.000000e-01  6.250000e-02  
-1.750000e+00  -1.750000e+00  -2.000000e+00  0  1076 0  -3.341278e-01 -3.341052e-01 -3.191235e-05   1.269659e-06 -1.287737e-06 -1.195436e-06 2.000000e-01  6.250000e-02  
-2.000000e+00  -1.750000e+00  -2.000000e+00  0  1075 0  4.665381e-06 1.018187e+01 4.962302e-06   2.506315e-06 -1.193758e-10 -2.395689e-06 2.000000e-01  6.250000e-02  
-2.000000e+00  -2.000000e+00  -1.750000e+00  0  1185 0  4.736657e-06 -9.091338e-07 1.018185e+01   4.023344e-07 2.397271e-06 -1.925431e-09 2.000000e-01  6.250000e-02  
-1.750000e+00  -2.000000e+00  -1.750000e+00  0  1186 0  -3.341359e-01 3.678742e-06 -3.341386e-01   2.315368e-07 1.265913e-07 -2.138846e-07 2.000000e-01  6.250000e-02  
-1.750000e+00  -1.750000e+00  -1.750000e+00  0  1197 0  1.643178e+00 1.643196e+00 1.643170e+00   8.772134e-07 1.678000e-08 -8.884818e-07 2.000000e-01  6.250000e-02  
-2.000000e+00  -1.750000e+00  -1.750000e+00  0  1196 0  -2.733788e-05 -3.341128e-01 -3.341381e-01   1.083090e-06 1.215363e-06 -1.240131e-06 2.000000e-01  6.250000e-02  
-1.500000e+00  -2.000000e+00  -2.000000e+00  0  1066 0  -8.860864e+00 1.836188e-06 -1.798941e-05   3.128206e-09 -2.083703e-06 -2.674321e-07 2.000000e-01  6.250000e-02  
-1.500000e+00  -1.750000e+00  -2.000000e+00  0  1077 0  1.519629e+01 -5.917855e+00 -3.147010e-06   -4.549494e-07 3.724184e-07 -1.647542e+00 2.000000e-01  6.250000e-02  
-1.500000e+00  -2.000000e+00  -1.750000e+00  0  1187 0  1.519630e+01 2.620618e-07 -5.917863e+00   -3.604978e-08 1.647543e+00 2.748432e-08 2.000000e-01  6.250000e-02  
-1.500000e+00  -1.750000e+00  -1.750000e+00  0  1198 0  9.612024e-01 -1.626667e+01 -1.626666e+01   1.341298e-07 2.103217e+00 -2.103218e+00 2.000000e-01  6.250000e-02  
-1.250000e+00  -2.000000e+00  -2.000000e+00  0  2099 0  -2.694822e+01 6.387864e-07 -5.824738e-06   8.327928e-10 -1.952054e-06 -2.099506e-07 2.000000e-01  6.250000e-02  
-1.250000e+00  -1.750000e+00  -2.000000e+00  0  2107 0  5.823757e+00 4.798424e-01 1.730020e-06   -6.221139e-07 -1.268509e-06 -1.121456e-01 2.000000e-01  6.250000e-02  
-1.250000e+00  -2.000000e+00  -1.750000e+00  0  2187 0  5.823759e+00 -1.783899e-07 4.798383e-01   -6.542716e-08 1.121460e-01 -1.381495e-07 2.000000e-01  6.250000e-02  
-1.250000e+00  -1.750000e+00  -1.750000e+00  0  2195 0  3.261581e+00 -1.479632e+01 -1.479633e+01   -3.611845e-07 -7.847247e-01 7.847239e-01 2.000000e-01  6.250000e-02  
-1.000000e+00  -2.000000e+00  -2.000000e+00  0  2100 0  3.900640e+00 6.458044e-07 -6.315586e-06   2.732719e-10 -2.061462e-07 -2.352417e-08 2.000000e-01  6.250000e-02  
-1.000000e+00  -1.750000e+00  -2.000000e+00  0  2108 0  1.692472e+01 -1.503058e+01 -1.539157e-06   -3.865765e-07 -3.280289e-07 2.099067e+00 2.000000e-01  6.250000e-02  
-1.000000e+00  -2.000000e+00  -1.750000e+00  0  2188 0  1.692471e+01 1.396671e-07 -1.503058e+01   -3.595596e-08 -2.099067e+00 -3.858233e-08 2.000000e-01  6.250000e-02  
-1.000000e+00  -1.750000e+00  -1.750000e+00  0  2196 0  8.244594e+00 -4.281530e+00 -4.281530e+00   -2.285754e-07 -1.749940e+00 1.749940e+00 2.000000e-01  6.250000e-02  
-7.500000e-01  -2.000000e+00  -2.000000e+00  0  2101 0  -1.931975e+01 -6.321286e-08 6.411315e-07   6.924065e-11 -1.351661e-07 -1.543605e-08 2.000000e-01  6.250000e-02  
-7.500000e-01  -1.750000e+00  -2.000000e+00  0  2109 0  -3.975955e+00 -1.816197e+01 -8.988311e-07   -2.886686e-07 -9.879111e-08 1.615961e+00 2.000000e-01  6.250000e-02  
-7.500000e-01  -2.000000e+00  -1.750000e+00  0  2189 0  -3.975954e+00 1.223861e-07 -1.816197e+01   -3.085782e-08 -1.615960e+00 -1.046107e-08 2.000000e-01  6.250000e-02  
-7.500000e-01  -1.750000e+00  -1.750000e+00  0  2197 0  -1.818797e+01 -4.426283e+00 -4.426284e+00   -8.937835e-08 -1.001605e+00 1.001605e+00 2.000000e-01  6.250000e-02  
-5.000000e-01  -2.000000e+00  -2.000000e+00  0  2102 0  -1.470717e+01 -2.258038e-07 1.832944e-06   4.520291e-11 -6.027736e-08 -5.898046e-09 2.000000e-01  6.250000e-02  
-5.000000e-01  -1.750000e+00  -2.000000e+00  0  2110 0  -4.206523e+00 -3.391849e+00 -2.466430e-06   -6.690836e-08 1.536934e-08 8.041645e-01 2.000000e-01  6.250000e-02  
-5.000000e-01  -2.000000e+00  -1.750000e+00  0  2190 0  -4.206523e+00 2.547651e-07 -3.391849e+00   -6.440461e-09 -8.041644e-01 3.264225e-09 2.000000e-01  6.250000e-02  
-5.000000e-01  -1.750000e+00  -1.750000e+00  0  2198 0  -2.350761e+00 -1.516257e+01 -1.516257e+01   -4.789281e-09 -7.102941e-01 7.102940e-01 2.000000e-01  6.250000e-02  
-2.500000e-01  -2.000000e+00  -2.000000e+00  0  2103 0  3.891989e+00 8.374337e-08 -8.079134e-07   1.036083e-10 -8.936947e-08 -1.205759e-08 2.000000e-01  6.250000e-02  
-2.500000e-01  -1.750000e+00  -2.000000e+00  0  2111 0  -1.284938e-01 -1.724758e+01 5.773216e-07   -1.343567e-08 -3.892145e-08 3.121929e-01 2.000000e-01  6.250000e-02  
-2.500000e-01  -2.000000e+00  -1.750000e+00  0  2191 0  -1.284930e-01 -6.064685e-08 -1.724758e+01   -5.640509e-10 -3.121930e-01 -6.123761e-09 2.000000e-01  6.250000e-02  
-2.500000e-01  -1.750000e+00  -1.750000e+00  0  2199 0  2.098705e+01 -2.329161e-01 -2.329172e-01   -9.348677e-09 -3.877688e-01 3.877686e-01 2.000000e-01  6.250000e-02  
0.000000e+00  -2.000000e+00  -2.000000e+00  0  2104 0  1.282209e-07 1.479084e-07 -1.409942e-06   9.164930e-11 -4.234745e-10 -1.493958e-10 2.000000e-01  6.250000e-02  
0.000000e+00  -1.750000e+00  -2.000000e+00  0  2112 0  2.526997e-06 -2.319743e+00 3.165817e-07   3.779523e-09 -4.782730e-10 -1.195852e-06 2.000000e-01  6.250000e-02  
0.000000e+00  -2.000000e+00  -1.750000e+00  0  2192 0  2.531682e-06 -2.785064e-08 -2.319744e+00   -1.160681e-10 1.195687e-06 2.478499e-10 2.000000e-01  6.250000e-02  
0.000000e+00  -1.750000e+00  -1.750000e+00  0  2200 0  -5.812610e-06 -1.764734e+01 -1.764734e+01   -5.750599e-08 8.804052e-07 -8.803108e-07 2.000000e-01  6.250000e-02  
-1.750000e+00  -1.500000e+00  -2.000000e+00  0  1087 0  -5.917862e+00 1.519631e+01 -3.111218e-06   -3.683715e-07 4.443143e-07 1.647543e+00 2.000000e-01  6.250000e-02  
-2.000000e+00  -1.500000e+00  -2.000000e+00  0  1086 0  -1.538404e-05 -8.860860e+00 -1.802877e-05   2.094690e-06 -2.088272e-10 -1.790211e-06 2.000000e-01  6.250000e-02  
-1.750000e+00  -1.500000e+00  -1.750000e+00  0  1208 0  -1.626667e+01 9.611871e-01 -1.626667e+01   -2.103219e+00 -8.219517e-08 2.103219e+00 2.000000e-01  6.250000e-02  
-2.000000e+00  -1.500000e+00  -1.750000e+00  0  1207 0  -2.719619e-06 1.519631e+01 -5.917860e+00   -1.647543e+00 -3.748084e-07 3.167401e-07 2.000000e-01  6.250000e-02  
-1.500000e+00  -1.500000e+00  -2.000000e+00  0  1088 0  2.292439e+00 2.292439e+00 -5.344675e-07   -1.378516e-06 1.372552e-06 1.749666e-08 2.000000e-01  6.250000e-02  
-1.500000e+00  -1.500000e+00  -1.750000e+00  0  1209 0  5.873093e+00 5.873097e+00 -1.848965e+01   -2.169619e+00 2.169619e+00 -6.097607e-07 2.000000e-01  6.250000e-02  
-1.250000e+00  -1.500000e+00  -2.000000e+00  0  2115 0  -6.933285e+00 5.954009e+00 -3.008082e-06   1.764261e-07 -4.637292e-07 -8.810848e-01 2.000000e-01  6.250000e-02  
-1.250000e+00  -1.500000e+00  -1.750000e+00  0  2203 0  -2.896818e+00 1.006053e+01 -1.320086e+01   -1.745500e+00 -1.292825e+00 -1.304701e+00 2.000000e-01  6.250000e-02  
-1.000000e+00  -1.500000e+00  -2.000000e+00  0  2116 0  4.350978e+00 1.328762e+01 2.213363e-09   1.029828e-07 -4.480747e-07 9.878885e-01 2.000000e-01  6.250000e-02  
-1.000000e+00  -1.500000e+00  -1.750000e+00  0  2204 0  2.281425e-01 9.479586e+00 -4.056760e+00   -7.960006e-01 -1.283464e+00 -4.411404e-02 2.000000e-01  6.250000e-02  
-7.500000e-01  -1.500000e+00  -2.000000e+00  0  2117 0  -6.452035e+00 2.655317e+00 4.592170e-07   -1.518974e-11 4.399830e-09 -1.766328e-01 2.000000e-01  6.250000e-02  
-7.500000e-01  -1.500000e+00  -1.750000e+00  0  2205 0  -1.451409e+01 2.148396e+01 -1.068423e+01   -1.745699e-01 -7.228574e-01 4.521982e-01 2.000000e-01  6.250000e-02  
-5.000000e-01  -1.500000e+00  -2.000000e+00  0  2118 0  -4.334522e+00 9.872004e+00 9.115513e-07   3.651821e-08 4.588970e-08 -9.444694e-01 2.000000e-01  6.250000e-02  
-5.000000e-01  -1.500000e+00  -1.750000e+00  0  2206 0  4.201677e+00 2.171561e+01 -1.287935e+01   -6.069301e-01 -7.124294e-01 -7.093268e-01 2.000000e-01  6.250000e-02  
-2.500000e-01  -1.500000e+00  -2.000000e+00  0  2119 0  1.030709e+00 7.617638e+00 -1.560401e-07   -2.622188e-08 1.785610e-08 -7.788982e-01 2.000000e-01  6.250000e-02  
-2.500000e-01  -1.500000e+00  -1.750000e+00  0  2207 0  -2.922481e+00 1.615728e+01 -4.686086e+00   -6.473491e-01 -4.559071e-01 -8.850535e-01 2.000000e-01  6.250000e-02  
0.000000e+00  -1.500000e+00  -2.000000e+00  0  2120 0  -4.418443e-08 7.656198e+00 -3.265201e-07   -5.324165e-08 -2.879725e-10 -3.973619e-07 2.000000e-01  6.250000e-02  
0.000000e+00  -1.500000e+00  -1.750000e+00  0  2208 0  8.955133e-07 2.251002e+01 -1.321126e+01   -5.486310e-01 2.647312e-07 -2.891128e-07 2.000000e-01  6.250000e-02  
-1.750000e+00  -1.250000e+00  -2.000000e+00  0  3012 0  4.798385e-01 5.823763e+00 1.731617e-06   1.270009e-06 6.216268e-07 1.121471e-01 2.000000e-01  6.250000e-02  
-2.000000e+00  -1.250000e+00  -2.000000e+00  0  3011 0  -4.984289e-06 -2.694822e+01 -5.789831e-06   1.954044e-06 -3.726820e-10 -1.664785e-06 2.000000e-01  6.250000e-02  
-1.750000e+00  -1.250000e+00  -1.750000e+00  0  3100 0  -1.479632e+01 3.261582e+00 -1.479632e+01   7.847229e-01 3.354370e-09 -7.847228e-01 2.000000e-01  6.250000e-02  
-2.000000e+00  -1.250000e+00  -1.750000e+00  0  3099 0  1.526906e-06 5.823764e+00 4.798381e-01   -1.121471e-01 -5.231260e-07 -1.076599e-06 2.000000e-01  6.250000e-02  
-1.500000e+00  -1.250000e+00  -2.000000e+00  0  3013 0  5.954007e+00 -6.933286e+00 -3.010725e-06   4.653985e-07 -1.819883e-07 8.810853e-01 2.000000e-01  6.250000e-02  
-1.500000e+00  -1.250000e+00  -1.750000e+00  0  3101 0  1.006052e+01 -2.896822e+00 -1.320086e+01   1.292825e+00 1.745501e+00 1.304701e+00 2.000000e-01  6.250000e-02  
-1.250000e+00  -1.250000e+00  -2.000000e+00  0  3779 0  -2.077857e+00 -2.077859e+00 3.841835e-07   4.273305e-07 -4.286520e-07 -1.814227e-07 2.000000e-01  6.250000e-02  
-1.250000e+00  -1.250000e+00  -1.750000e+00  0  3843 0  -4.502654e+00 -4.502654e+00 -1.139270e+01   4.393736e-01 -4.393735e-01 -1.759747e-07 2.000000e-01  6.250000e-02  
-1.000000e+00  -1.250000e+00  -2.000000e+00  0  3780 0  7.005712e+00 -9.606345e-01 -3.076587e-07   2.239667e-07 -3.025164e-07 -1.799077e+00 2.000000e-01  6.250000e-02  
-1.000000e+00  -1.250000e+00  -1.750000e+00  0  3844 0  4.690440e+00 -5.145817e+00 -1.500599e+01   3.967722e-01 -8.007033e-01 -2.586570e+00 2.000000e-01  6.250000e-02  
-7.500000e-01  -1.250000e+00  -2.000000e+00  0  3781 0  -1.424086e+01 -4.669340e+00 -1.761499e-07   -1.809362e-08 4.939097e-08 -3.799828e-01 2.000000e-01  6.250000e-02  
-7.500000e-01  -1.250000e+00  -1.750000e+00  0  3845 0  -5.304713e+00 -6.351334e+00 -1.818639e+01   7.854593e-01 -9.634996e-01 -4.415546e-01 2.000000e-01  6.250000e-02  
-5.000000e-01  -1.250000e+00  -2.000000e+00  0  3782 0  -7.984500e+00 2.548492e+00 -6.427659e-08   1.212715e-08 -7.960817e-09 1.385645e-01 2.000000e-01  6.250000e-02  
-5.000000e-01  -1.250000e+00  -1.750000e+00  0  3846 0  1.512655e+00 -7.153268e+00 -1.525589e+01   8.534363e-01 -6.408683e-01 -1.303730e-01 2.000000e-01  6.250000e-02  
-2.500000e-01  -1.250000e+00  -2.000000e+00  0  3783 0  2.507287e+00 -1.568413e+00 -2.758257e-08   6.195877e-09 1.047663e-08 -1.612549e-01 2.000000e-01  6.250000e-02  
-2.500000e-01  -1.250000e+00  -1.750000e+00  0  3847 0  1.150865e+00 -5.978064e+00 -1.575092e+01   9.694950e-01 -3.776734e-01 -2.467390e-01 2.000000e-01  6.250000e-02  
0.000000e+00  -1.250000e+00  -2.000000e+00  0  3784 0  1.719421e-07 3.160909e+00 4.508179e-08   1.493837e-08 4.401987e-11 -4.157146e-08 2.000000e-01  6.250000e-02  
0.000000e+00  -1.250000e+00  -1.750000e+00  0  3848 0  -1.681065e-07 -8.835872e+00 -1.615309e+01   9.841827e-01 -1.115936e-08 -2.908966e-08 2.000000e-01  6.250000e-02  
-1.750000e+00  -1.000000e+00  -2.000000e+00  0  3023 0  -1.503058e+01 1.692471e+01 -1.514886e-06   3.311324e-07 3.851517e-07 -2.099066e+00 2.000000e-01  6.250000e-02  
-2.000000e+00  -1.000000e+00  -2.000000e+00  0  3022 0  -5.368909e-06 3.900634e+00 -6.301360e-06   2.062671e-07 -5.410239e-11 -1.799765e-07 2.000000e-01  6.250000e-02  
-1.750000e+00  -1.000000e+00  -1.750000e+00  0  3111 0  -4.281531e+00 8.244600e+00 -4.281532e+00   1.749939e+00 5.104388e-08 -1.749939e+00 2.000000e-01  6.250000e-02  
-2.000000e+00  -1.000000e+00  -1.750000e+00  0  3110 0  -1.325057e-06 1.692471e+01 -1.503058e+01   2.099066e+00 -3.214276e-07 -2.833768e-07 2.000000e-01  6.250000e-02  
-1.500000e+00  -1.000000e+00  -2.000000e+00  0  3024 0  1.328762e+01 4.350979e+00 -1.681391e-09   4.513159e-07 -1.052772e-07 -9.878879e-01 2.000000e-01  6.250000e-02  
-1.500000e+00  -1.000000e+00  -1.750000e+00  0  3112 0  9.479587e+00 2.281407e-01 -4.056758e+00   1.283464e+00 7.960003e-01 4.411460e-02 2.000000e-01  6.250000e-02  
-1.250000e+00  -1.000000e+00  -2.000000e+00  0  3787 0  -9.606351e-01 7.005713e+00 -3.037960e-07   3.036254e-07 -2.244467e-07 1.799077e+00 2.000000e-01  6.250000e-02  
-1.250000e+00  -1.000000e+00  -1.750000e+00  0  3851 0  -5.145817e+00 4.690440e+00 -1.500599e+01   8.007033e-01 -3.967723e-01 2.586570e+00 2.000000e-01  6.250000e-02  
-1.000000e+00  -1.000000e+00  -2.000000e+00  0  3788 0  -8.546414e+00 -8.546414e+00 -3.521188e-08   4.741291e-08 -4.773254e-08 -4.253947e-08 2.000000e-01  6.250000e-02  
-1.000000e+00  -1.000000e+00  -1.750000e+00  0  3852 0  8.213288e+00 8.213288e+00 -1.341381e+01   -7.613995e-02 7.613997e-02 -2.430837e-08 2.000000e-01  6.250000e-02  
-7.500000e-01  -1.000000e+00  -2.000000e+00  0  3789 0  9.947604e-01 5.717153e+00 -9.823271e-09   -2.876463e-08 -2.515690e-09 1.356886e+00 2.000000e-01  6.250000e-02  
-7.500000e-01  -1.000000e+00  -1.750000e+00  0  3853 0  -3.690884e+00 1.594263e+01 -1.254345e+01   -1.741674e-01 -4.094784e-01 4.844263e-01 2.000000e-01  6.250000e-02  
-5.000000e-01  -1.000000e+00  -2.000000e+00  0  3790 0  -5.537629e-01 5.550177e-01 5.100327e-09   4.417325e-09 -1.475558e-08 9.852891e-01 2.000000e-01  6.250000e-02  
-5.000000e-01  -1.000000e+00  -1.750000e+00  0  3854 0  -5.235299e+00 -5.782188e+00 -1.293825e+01   5.093094e-01 -2.483059e-01 4.902206e-01 2.000000e-01  6.250000e-02  
-2.500000e-01  -1.000000e+00  -2.000000e+00  0  3791 0  -9.101551e-01 -5.012748e-01 8.821107e-09   -6.654506e-10 -1.199163e-09 -3.335176e-01 2.000000e-01  6.250000e-02  
-2.500000e-01  -1.000000e+00  -1.750000e+00  0  3855 0  7.669680e+00 4.212798e+00 -9.745603e+00   8.237319e-01 -2.187331e-01 -4.660113e-01 2.000000e-01  6.250000e-02  
0.000000e+00  -1.000000e+00  -2.000000e+00  0  3792 0  2.992420e-09 -1.323286e+00 -1.002329e-08   -1.933592e-09 -7.205825e-11 2.410230e-09 2.000000e-01  6.250000e-02  
0.000000e+00  -1.000000e+00  -1.750000e+00  0  3856 0  6.690106e-09 5.085486e+00 -1.368717e+01   8.680816e-01 8.471875e-09 1.117713e-09 2.000000e-01  6.250000e-02  
-1.750000e+00  -7.500000e-01  -2.000000e+00  0  3034 0  -1.816198e+01 -3.975954e+00 -9.310737e-07   9.603966e-08 2.890657e-07 -1.615960e+00 2.000000e-01  6.250000e-02  
-2.000000e+00  -7.500000e-01  -2.000000e+00  0  3033 0  5.292775e-07 -1.931975e+01 6.400050e-07   1.322450e-07 2.002810e-10 -1.192313e-07 2.000000e-01  6.250000e-02  
-1.750000e+00  -7.500000e-01  -1.750000e+00  0  3122 0  -4.426272e+00 -1.818798e+01 -4.426272e+00   1.001605e+00 -2.261239e-09 -1.001605e+00 2.000000e-01  6.250000e-02  
-2.000000e+00  -7.500000e-01  -1.750000e+00  0  3121 0  -7.590192e-07 -3.975953e+00 -1.816197e+01   1.615960e+00 -2.464909e-07 -8.405010e-08 2.000000e-01  6.250000e-02  
-1.500000e+00  -7.500000e-01  -2.000000e+00  0  3035 0  2.655317e+00 -6.452035e+00 4.553938e-07   -5.285371e-09 9.569610e-10 1.766325e-01 2.000000e-01  6.250000e-02  
-1.500000e+00  -7.500000e-01  -1.750000e+00  0  3123 0  2.148396e+01 -1.451409e+01 -1.068424e+01   7.228574e-01 1.745695e-01 -4.521986e-01 2.000000e-01  6.250000e-02  
-1.250000e+00  -7.500000e-01  -2.000000e+00  0  3795 0  -4.669340e+00 -1.424087e+01 -1.778400e-07   -4.960865e-08 1.830155e-08 3.799828e-01 2.000000e-01  6.250000e-02  
-1.250000e+00  -7.500000e-01  -1.750000e+00  0  3859 0  -6.351334e+00 -5.304713e+00 -1.818639e+01   9.634996e-01 -7.854593e-01 4.415547e-01 2.000000e-01  6.250000e-02  
-1.000000e+00  -7.500000e-01  -2.000000e+00  0  3796 0  5.717153e+00 9.947604e-01 -1.130616e-08   2.351185e-09 2.864470e-08 -1.356886e+00 2.000000e-01  6.250000e-02  
-1.000000e+00  -7.500000e-01  -1.750000e+00  0  3860 0  1.594263e+01 -3.690884e+00 -1.254345e+01   4.094784e-01 1.741674e-01 -4.844263e-01 2.000000e-01  6.250000e-02  
-7.500000e-01  -7.500000e-01  -2.000000e+00  0  3797 0  -5.957449e+00 -5.957449e+00 1.407823e-07   2.499447e-08 -2.521453e-08 4.751742e-10 2.000000e-01  6.250000e-02  
-7.500000e-01  -7.500000e-01  -1.750000e+00  0  3861 0  -7.672627e+00 -7.672627e+00 -7.974152e+00   3.091737e-01 -3.091737e-01 2.722515e-09 2.000000e-01  6.250000e-02  
-5.000000e-01  -7.500000e-01  -2.000000e+00  0  3798 0  -2.780142e+00 -2.671051e+00 -3.852148e-08   8.499309e-09 -1.153299e-08 1.145208e-01 2.000000e-01  6.250000e-02  
-5.000000e-01  -7.500000e-01  -1.750000e+00  0  3862 0  1.201737e+00 -5.044142e+00 -1.732581e+01   6.010986e-01 -2.741934e-01 4.322300e-01 2.000000e-01  6.250000e-02  
-2.500000e-01  -7.500000e-01  -2.000000e+00  0  3799 0  2.977032e-01 9.095964e-01 -2.601023e-09   9.339620e-10 1.443608e-09 -2.453437e-01 2.000000e-01  6.250000e-02  
-2.500000e-01  -7.500000e-01  -1.750000e+00  0  3863 0  3.093457e+00 -4.126338e+00 -1.274833e+01   4.805396e-01 -1.341761e-01 -1.880237e-01 2.000000e-01  6.250000e-02  
0.000000e+00  -7.500000e-01  -2.000000e+00  0  3800 0  -4.208593e-09 -8.175567e-03 1.052089e-09   1.550295e-09 -1.230655e-10 2.330259e-09 2.000000e-01  6.250000e-02  
0.000000e+00  -7.500000e-01  -1.750000e+00  0  3864 0  -8.751558e-09 -9.754642e+00 -1.765546e+01   4.268064e-01 1.794581e-09 1.932827e-09 2.000000e-01  6.250000e-02  
-1.750000e+00  -5.000000e-01  -2.000000e+00  0  3045 0  -3.391846e+00 -4.206522e+00 -2.431811e-06   -1.593689e-08 6.589275e-08 -8.041655e-01 2.000000e-01  6.250000e-02  
-2.000000e+00  -5.000000e-01  -2.000000e+00  0  3044 0  1.541302e-06 -1.470719e+01 1.842081e-06   6.250667e-08 3.256535e-10 -4.519093e-08 2.000000e-01  6.250000e-02  
-1.750000e+00  -5.000000e-01  -1.750000e+00  0  3133 0  -1.516257e+01 -2.350778e+00 -1.516257e+01   7.102948e-01 -6.837138e-09 -7.102948e-01 2.000000e-01  6.250000e-02  
-2.000000e+00  -5.000000e-01  -1.750000e+00  0  3132 0  -2.122999e-06 -4.206522e+00 -3.391846e+00   8.041655e-01 -6.037624e-08 1.820737e-08 2.000000e-01  6.250000e-02  
-1.500000e+00  -5.000000e-01  -2.000000e+00  0  3046 0  9.872005e+00 -4.334523e+00 9.056030e-07   -4.614297e-08 -3.613090e-08 9.444684e-01 2.000000e-01  6.250000e-02  
-1.500000e+00  -5.000000e-01  -1.750000e+00  0  3134 0  2.171561e+01 4.201682e+00 -1.287935e+01   7.124296e-01 6.069300e-01 7.093258e-01 2.000000e-01  6.250000e-02  
-1.250000e+00  -5.000000e-01  -2.000000e+00  0  3803 0  2.548492e+00 -7.984500e+00 -6.315502e-08   8.469623e-09 -1.250418e-08 -1.385643e-01 2.000000e-01  6.250000e-02  
-1.250000e+00  -5.000000e-01  -1.750000e+00  0  3867 0  -7.153268e+00 1.512654e+00 -1.525589e+01   6.408683e-01 -8.534363e-01 1.303733e-01 2.000000e-01  6.250000e-02  
-1.000000e+00  -5.000000e-01  -2.000000e+00  0  3804 0  5.550179e-01 -5.537629e-01 3.845159e-09   1.466258e-08 -4.429456e-09 -9.852891e-01 2.000000e-01  6.250000e-02  
-1.000000e+00  -5.000000e-01  -1.750000e+00  0  3868 0  -5.782188e+00 -5.235299e+00 -1.293825e+01   2.483059e-01 -5.093094e-01 -4.902206e-01 2.000000e-01  6.250000e-02  
-7.500000e-01  -5.000000e-01  -2.000000e+00  0  3805 0  -2.671051e+00 -2.780142e+00 -3.772641e-08   1.131134e-08 -8.568914e-09 -1.145208e-01 2.000000e-01  6.250000e-02  
-7.500000e-01  -5.000000e-01  -1.750000e+00  0  3869 0  -5.044142e+00 1.201737e+00 -1.732581e+01   2.741934e-01 -6.010986e-01 -4.322300e-01 2.000000e-01  6.250000e-02  
-5.000000e-01  -5.000000e-01  -2.000000e+00  0  3806 0  -1.626846e+00 -1.626846e+00 1.541148e-08   2.556543e-09 -2.761921e-09 9.846850e-10 2.000000e-01  6.250000e-02  
-5.000000e-01  -5.000000e-01  -1.750000e+00  0  3870 0  2.412928e+00 2.412929e+00 -2.248339e+01   3.651567e-01 -3.651567e-01 9.605694e-10 2.000000e-01  6.250000e-02  
-2.500000e-01  -5.000000e-01  -2.000000e+00  0  3807 0  -1.628254e-01 -2.409680e+00 8.736541e-10   -1.451909e-09 9.738645e-10 -1.715265e-01 2.000000e-01  6.250000e-02  
-2.500000e-01  -5.000000e-01  -1.750000e+00  0  3871 0  2.849541e+00 -5.951789e+00 -1.602045e+01   2.006606e-01 -9.669614e-02 -2.080174e-01 2.000000e-01  6.250000e-02  
0.000000e+00  -5.000000e-01  -2.000000e+00  0  3808 0  5.392245e-10 -3.541410e+00 1.477923e-09   3.128517e-10 -3.568595e-11 -4.486679e-10 2.000000e-01  6.250000e-02  
0.000000e+00  -5.000000e-01  -1.750000e+00  0  3872 0  2.883198e-09 4.176404e+00 -2.027416e+01   1.960847e-01 3.610484e-11 -2.162517e-10 2.000000e-01  6.250000e-02  
-1.750000e+00  -2.500000e-01  -2.000000e+00  0  3056 0  -1.724758e+01 -1.284982e-01 5.682423e-07   3.978668e-08 1.269966e-08 -3.121945e-01 2.000000e-01  6.250000e-02  
-2.000000e+00  -2.500000e-01  -2.000000e+00  0  3055 0  -6.876199e-07 3.891963e+00 -8.118609e-07   9.053792e-08 3.328315e-10 -7.412603e-08 2.000000e-01  6.250000e-02  
-1.750000e+00  -2.500000e-01  -1.750000e+00  0  3144 0  -2.329123e-01 2.098704e+01 -2.329124e-01   3.877696e-01 -1.130657e-11 -3.877696e-01 2.000000e-01  6.250000e-02  
-2.000000e+00  -2.500000e-01  -1.750000e+00  0  3143 0  4.885427e-07 -1.284981e-01 -1.724758e+01   3.121946e-01 -1.326062e-08 -3.137811e-08 2.000000e-01  6.250000e-02  
-1.500000e+00  -2.500000e-01  -2.000000e+00  0  3057 0  7.617638e+00 1.030707e+00 -1.527219e-07   -1.739712e-08 2.598515e-08 7.788972e-01 2.000000e-01  6.250000e-02  
-1.500000e+00  -2.500000e-01  -1.750000e+00  0  3145 0  1.615728e+01 -2.922481e+00 -4.686087e+00   4.559073e-01 6.473490e-01 8.850528e-01 2.000000e-01  6.250000e-02  
-1.250000e+00  -2.500000e-01  -2.000000e+00  0  3811 0  -1.568413e+00 2.507287e+00 -2.737121e-08   -1.023256e-08 -6.323933e-09 1.612550e-01 2.000000e-01  6.250000e-02  
-1.250000e+00  -2.500000e-01  -1.750000e+00  0  3875 0  -5.978064e+00 1.150865e+00 -1.575092e+01   3.776735e-01 -9.694950e-01 2.467391e-01 2.000000e-01  6.250000e-02  
-1.000000e+00  -2.500000e-01  -2.000000e+00  0  3812 0  -5.012748e-01 -9.101551e-01 8.635067e-09   1.210222e-09 7.045736e-10 3.335176e-01 2.000000e-01  6.250000e-02  
-1.000000e+00  -2.500000e-01  -1.750000e+00  0  3876 0  4.212797e+00 7.669680e+00 -9.745603e+00   2.187331e-01 -8.237319e-01 4.660113e-01 2.000000e-01  6.250000e-02  
-7.500000e-01  -2.500000e-01  -2.000000e+00  0  3813 0  9.095964e-01 2.977033e-01 -2.482292e-09   -1.486314e-09 -1.063850e-09 2.453437e-01 2.000000e-01  6.250000e-02  
-7.500000e-01  -2.500000e-01  -1.750000e+00  0  3877 0  -4.126338e+00 3.093457e+00 -1.274833e+01   1.341761e-01 -4.805396e-01 1.880236e-01 2.000000e-01  6.250000e-02  
-5.000000e-01  -2.500000e-01  -2.000000e+00  0  3814 0  -2.409680e+00 -1.628254e-01 6.851280e-10   -1.000904e-09 1.361335e-09 1.715265e-01 2.000000e-01  6.250000e-02  
-5.000000e-01  -2.500000e-01  -1.750000e+00  0  3878 0  -5.951789e+00 2.849541e+00 -1.602045e+01   9.669614e-02 -2.006606e-01 2.080174e-01 2.000000e-01  6.250000e-02  
-2.500000e-01  -2.500000e-01  -2.000000e+00  0  3815 0  4.292393e-01 4.292393e-01 -9.457149e-10   -2.550882e-11 2.513914e-11 -2.446493e-10 2.000000e-01  6.250000e-02  
-2.500000e-01  -2.500000e-01  -1.750000e+00  0  3879 0  2.855400e+00 2.855400e+00 -1.437930e+01   1.198192e-01 -1.198192e-01 -1.029529e-10 2.000000e-01  6.250000e-02  
0.000000e+00  -2.500000e-01  -2.000000e+00  0  3816 0  1.725916e-09 -2.225706e-01 1.428145e-09   9.773710e-11 5.127887e-11 -1.446822e-10 2.000000e-01  6.250000e-02  
0.000000e+00  -2.500000e-01  -1.750000e+00  0  3880 0  -1.461670e-09 3.506996e+00 -1.579769e+01   1.840090e-01 -3.895253e-12 -1.335344e-10 2.000000e-01  6.250000e-02  
-1.750000e+00  0.000000e+00  -2.000000e+00  0  3067 0  -2.319745e+00 -3.351066e-07 3.180180e-07   -2.845511e-10 -3.671916e-09 -1.649147e-07 2.000000e-01  6.250000e-02  
-2.000000e+00  0.000000e+00  -2.000000e+00  0  3066 0  -1.216866e-06 -2.063209e-08 -1.412992e-06   1.323760e-10 2.290648e-10 -4.261002e-10 2.000000e-01  6.250000e-02  
-1.750000e+00  0.000000e+00  -1.750000e+00  0  3155 0  -1.764734e+01 7.492312e-07 -1.764734e+01   1.203967e-07 8.088819e-09 -1.200616e-07 2.000000e-01  6.250000e-02  
-2.000000e+00  0.000000e+00  -1.750000e+00  0  3154 0  2.688392e-07 -3.368505e-07 -2.319745e+00   1.661696e-07 2.471580e-09 -2.697553e-11 2.000000e-01  6.250000e-02  
-1.500000e+00  0.000000e+00  -2.000000e+00  0  3068 0  7.656198e+00 4.520484e-09 -3.253482e-07   -2.899256e-10 5.296872e-08 -5.096322e-08 2.000000e-01  6.250000e-02  
-1.500000e+00  0.000000e+00  -1.750000e+00  0  3156 0  2.251002e+01 -1.108366e-07 -1.321126e+01   3.557013e-08 5.486309e-01 -3.693956e-08 2.000000e-01  6.250000e-02  
-1.250000e+00  0.000000e+00  -2.000000e+00  0  3819 0  3.160909e+00 -2.243116e-08 4.620018e-08   -1.110407e-10 -1.479241e-08 -6.027095e-09 2.000000e-01  6.250000e-02  
-1.250000e+00  0.000000e+00  -1.750000e+00  0  3883 0  -8.835872e+00 2.099181e-08 -1.615309e+01   -1.116919e-09 -9.841827e-01 -4.174537e-09 2.000000e-01  6.250000e-02  
-1.000000e+00  0.000000e+00  -2.000000e+00  0  3820 0  -1.323286e+00 8.974864e-10 -1.131457e-08   1.960210e-12 1.978982e-09 2.929471e-10 2.000000e-01  6.250000e-02  
-1.000000e+00  0.000000e+00  -1.750000e+00  0  3884 0  5.085486e+00 -1.076173e-10 -1.368717e+01   1.172667e-09 -8.680816e-01 1.679784e-10 2.000000e-01  6.250000e-02  
-7.500000e-01  0.000000e+00  -2.000000e+00  0  3821 0  -8.175570e-03 -2.581770e-09 1.271308e-09   1.162704e-10 -1.818073e-09 2.194635e-10 2.000000e-01  6.250000e-02  
-7.500000e-01  0.000000e+00  -1.750000e+00  0  3885 0  -9.754642e+00 1.077450e-09 -1.765546e+01   5.878044e-10 -4.268064e-01 1.463910e-10 2.000000e-01  6.250000e-02  
-5.000000e-01  0.000000e+00  -2.000000e+00  0  3822 0  -3.541410e+00 -6.050068e-10 1.523145e-09   1.190177e-10 -3.861712e-10 -2.773615e-13 2.000000e-01  6.250000e-02  
-5.000000e-01  0.000000e+00  -1.750000e+00  0  3886 0  4.176404e+00 5.944723e-10 -2.027416e+01   2.612539e-10 -1.960847e-01 1.044063e-10 2.000000e-01  6.250000e-02  
-2.500000e-01  0.000000e+00  -2.000000e+00  0  3823 0  -2.225706e-01 1.111653e-09 9.048194e-10   6.233367e-11 -8.055820e-11 4.777191e-11 2.000000e-01  6.250000e-02  
-2.500000e-01  0.000000e+00  -1.750000e+00  0  3887 0  3.506996e+00 -1.243321e-09 -1.579769e+01   9.900170e-12 -1.840090e-01 9.680072e-11 2.000000e-01  6.250000e-02  
0.000000e+00  0.000000e+00  -2.000000e+00  0  3824 0  -8.441261e-10 -4.410837e-10 2.170322e-09   4.883505e-11 4.681053e-11 -3.429070e-12 2.000000e-01  6.250000e-02  
0.000000e+00  0.000000e+00  -1.750000e+00  0  3888 0  4.960903e-10 5.518771e-10 -1.919194e+01   -5.889369e-12 4.498735e-11 1.033261e-11 2.000000e-01  6.250000e-02  
-2.000000e+00  -2.000000e+00  -1.500000e+00  0  1306 0  -1.548902e-05 1.915034e-06 -8.860885e+00   2.416411e-07 1.807897e-06 -2.491646e-09 2.000000e-01  6.250000e-02  
-1.750000e+00  -2.000000e+00  -1.500000e+00  0  1307 0  -5.917863e+00 3.840088e-07 1.519629e+01   -3.721382e-08 -1.647543e+00 5.145244e-08 2.000000e-01  6.250000e-02  
-1.750000e+00  -1.750000e+00  -1.500000e+00  0  1318 0  -1.626667e+01 -1.626667e+01 9.612064e-01   2.103218e+00 -2.103217e+00 -4.351325e-08 2.000000e-01  6.250000e-02  
-2.000000e+00  -1.750000e+00  -1.500000e+00  0  1317 0  -2.655572e-06 -5.917853e+00 1.519628e+01   1.647542e+00 -3.101539e-07 3.616743e-07 2.000000e-01  6.250000e-02  
-1.500000e+00  -2.000000e+00  -1.500000e+00  0  1308 0  2.292436e+00 7.922484e-08 2.292436e+00   -1.515952e-07 1.136072e-07 1.601287e-07 2.000000e-01  6.250000e-02  
-1.500000e+00  -1.750000e+00  -1.500000e+00  0  1319 0  5.873101e+00 -1.848965e+01 5.873099e+00   2.169619e+00 -1.388889e-07 -2.169619e+00 2.000000e-01  6.250000e-02  
-1.250000e+00  -2.000000e+00  -1.500000e+00  0  2275 0  -6.933287e+00 3.374978e-07 5.954007e+00   2.023084e-08 8.810855e-01 -5.167911e-08 2.000000e-01  6.250000e-02  
-1.250000e+00  -1.750000e+00  -1.500000e+00  0  2283 0  -2.896824e+00 -1.320086e+01 1.006052e+01   1.745500e+00 1.304701e+00 1.292825e+00 2.000000e-01  6.250000e-02  
-1.000000e+00  -2.000000e+00  -1.500000e+00  0  2276 0  4.350978e+00 -7.834586e-10 1.328762e+01   1.104736e-08 -9.878880e-01 -5.055581e-08 2.000000e-01  6.250000e-02  
-1.000000e+00  -1.750000e+00  -1.500000e+00  0  2284 0  2.281412e-01 -4.056758e+00 9.479588e+00   7.960004e-01 4.411472e-02 1.283464e+00 2.000000e-01  6.250000e-02  
-7.500000e-01  -2.000000e+00  -1.500000e+00  0  2277 0  -6.452036e+00 -4.473029e-08 2.655318e+00   -1.237465e-09 1.766330e-01 9.310678e-10 2.000000e-01  6.250000e-02  
-7.500000e-01  -1.750000e+00  -1.500000e+00  0  2285 0  -1.451409e+01 -1.068423e+01 2.148396e+01   1.745700e-01 -4.521981e-01 7.228574e-01 2.000000e-01  6.250000e-02  
-5.000000e-01  -2.000000e+00  -1.500000e+00  0  2278 0  -4.334521e+00 -9.972171e-08 9.872004e+00   3.583865e-09 9.444694e-01 5.424822e-09 2.000000e-01  6.250000e-02  
-5.000000e-01  -1.750000e+00  -1.500000e+00  0  2286 0  4.201679e+00 -1.287935e+01 2.171561e+01   6.069302e-01 7.093268e-01 7.124293e-01 2.000000e-01  6.250000e-02  