VARIABLES="X", "Y", "Z", "Maximum Refinment Level", "Temp_ID", "Thread","Ex (corner node)","Ey (corner node)","Ez (corner node)","Bx (center node)","By (center node)","Bz (center node)", "Local Time Step" , "log10(Local Particle Weight)" 
ZONE N=4913, E=4096, DATAPACKING=POINT, ZONETYPE=FEBRICK
-2.000000e+00  -2.000000e+00  -2.000000e+00  0  1064 0  -3.707602e-05 2.220362e-03 -3.707602e-05   -2.484306e-04 -2.204081e-20 2.484306e-04 2.000000e-01  1.000000e+00  
-1.750000e+00  -2.000000e+00  -2.000000e+00  0  1065 0  3.707602e-05 2.220362e-03 -3.707602e-05   -2.484306e-04 -7.799063e-21 -2.484306e-04 2.000000e-01  1.000000e+00  
-1.750000e+00  -1.750000e+00  -2.000000e+00  0  1076 0  9.491856e-05 1.956372e-03 -9.491856e-05   -2.180377e-04 -1.137917e-20 -2.180377e-04 2.000000e-01  1.000000e+00  
-2.000000e+00  -1.750000e+00  -2.000000e+00  0  1075 0  -9.491856e-05 1.956372e-03 -9.491856e-05   -2.180377e-04 -2.106152e-20 2.180377e-04 2.000000e-01  1.000000e+00  
-2.000000e+00  -2.000000e+00  -1.750000e+00  0  1185 0  -3.707602e-05 2.220362e-03 3.707602e-05   2.484306e-04 -3.164744e-21 2.484306e-04 2.000000e-01  1.000000e+00  
-1.750000e+00  -2.000000e+00  -1.750000e+00  0  1186 0  3.707602e-05 2.220362e-03 3.707602e-05   2.484306e-04 -5.874581e-21 -2.484306e-04 2.000000e-01  1.000000e+00  
-1.750000e+00  -1.750000e+00  -1.750000e+00  0  1197 0  9.491856e-05 1.956372e-03 9.491856e-05   2.180377e-04 -4.478044e-21 -2.180377e-04 2.000000e-01  1.000000e+00  
-2.000000e+00  -1.750000e+00  -1.750000e+00  0  1196 0  -9.491856e-05 1.956372e-03 9.491856e-05   2.180377e-04 -2.135709e-21 2.180377e-04 2.000000e-01  1.000000e+00  
-1.500000e+00  -2.000000e+00  -2.000000e+00  0  1066 0  6.874987e-05 3.014042e-03 -5.135165e-05   -5.009843e-04 -3.754033e-20 -6.732765e-04 2.000000e-01  1.000000e+00  
-1.500000e+00  -1.750000e+00  -2.000000e+00  0  1077 0  1.961265e-04 2.814831e-03 -1.469723e-04   -4.540597e-04 -4.321628e-20 -6.147879e-04 2.000000e-01  1.000000e+00  
-1.500000e+00  -2.000000e+00  -1.750000e+00  0  1187 0  6.874987e-05 3.014042e-03 5.135165e-05   5.009843e-04 2.913044e-21 -6.732765e-04 2.000000e-01  1.000000e+00  
-1.500000e+00  -1.750000e+00  -1.750000e+00  0  1198 0  1.961265e-04 2.814831e-03 1.469723e-04   4.540597e-04 3.156720e-21 -6.147879e-04 2.000000e-01  1.000000e+00  
-1.250000e+00  -2.000000e+00  -2.000000e+00  0  2099 0  1.974257e-04 7.483410e-03 -1.708114e-04   -1.252800e-03 -3.224199e-20 -1.383982e-03 2.000000e-01  1.000000e+00  
-1.250000e+00  -1.750000e+00  -2.000000e+00  0  2107 0  5.119062e-04 6.412198e-03 -4.568323e-04   -1.101245e-03 -4.520546e-20 -1.219210e-03 2.000000e-01  1.000000e+00  
-1.250000e+00  -2.000000e+00  -1.750000e+00  0  2187 0  1.974257e-04 7.483410e-03 1.708114e-04   1.252800e-03 -2.927276e-21 -1.383982e-03 2.000000e-01  1.000000e+00  
-1.250000e+00  -1.750000e+00  -1.750000e+00  0  2195 0  5.119062e-04 6.412198e-03 4.568323e-04   1.101245e-03 -6.939287e-21 -1.219210e-03 2.000000e-01  1.000000e+00  
-1.000000e+00  -2.000000e+00  -2.000000e+00  0  2100 0  1.638560e-04 9.621476e-03 -2.859949e-04   -2.399716e-03 -9.991010e-20 -1.788258e-03 2.000000e-01  1.000000e+00  
-1.000000e+00  -1.750000e+00  -2.000000e+00  0  2108 0  5.197357e-04 8.979541e-03 -8.252487e-04   -2.128717e-03 -1.000715e-19 -1.633904e-03 2.000000e-01  1.000000e+00  
-1.000000e+00  -2.000000e+00  -1.750000e+00  0  2188 0  1.638560e-04 9.621476e-03 2.859949e-04   2.399716e-03 3.069562e-20 -1.788258e-03 2.000000e-01  1.000000e+00  
-1.000000e+00  -1.750000e+00  -1.750000e+00  0  2196 0  5.197357e-04 8.979541e-03 8.252487e-04   2.128717e-03 1.529003e-20 -1.633904e-03 2.000000e-01  1.000000e+00  
-7.500000e-01  -2.000000e+00  -2.000000e+00  0  2101 0  3.290893e-04 1.872575e-02 -5.233019e-04   -3.891039e-03 -1.292126e-19 -2.344409e-03 2.000000e-01  1.000000e+00  
-7.500000e-01  -1.750000e+00  -2.000000e+00  0  2109 0  8.148945e-04 1.605420e-02 -1.218545e-03   -3.461018e-03 -1.313423e-19 -2.076499e-03 2.000000e-01  1.000000e+00  
-7.500000e-01  -2.000000e+00  -1.750000e+00  0  2189 0  3.290893e-04 1.872575e-02 5.233019e-04   3.891039e-03 5.279053e-20 -2.344409e-03 2.000000e-01  1.000000e+00  
-7.500000e-01  -1.750000e+00  -1.750000e+00  0  2197 0  8.148945e-04 1.605420e-02 1.218545e-03   3.461018e-03 3.633263e-20 -2.076499e-03 2.000000e-01  1.000000e+00  
-5.000000e-01  -2.000000e+00  -2.000000e+00  0  2102 0  3.576825e-04 2.116038e-02 -1.218703e-03   -5.894214e-03 -1.638870e-19 -2.256499e-03 2.000000e-01  1.000000e+00  
-5.000000e-01  -1.750000e+00  -2.000000e+00  0  2110 0  6.566884e-04 1.925506e-02 -1.745937e-03   -5.163814e-03 -1.440646e-19 -2.018770e-03 2.000000e-01  1.000000e+00  
-5.000000e-01  -2.000000e+00  -1.750000e+00  0  2190 0  3.576825e-04 2.116038e-02 1.218703e-03   5.894214e-03 -2.713259e-20 -2.256499e-03 2.000000e-01  1.000000e+00  
-5.000000e-01  -1.750000e+00  -1.750000e+00  0  2198 0  6.566884e-04 1.925506e-02 1.745937e-03   5.163814e-03 -1.005223e-20 -2.018770e-03 2.000000e-01  1.000000e+00  
-2.500000e-01  -2.000000e+00  -2.000000e+00  0  2103 0  3.402888e-04 2.974196e-02 -2.060996e-03   -7.250601e-03 -2.263485e-19 -1.550799e-03 2.000000e-01  1.000000e+00  
-2.500000e-01  -1.750000e+00  -2.000000e+00  0  2111 0  2.939343e-04 2.552511e-02 -1.476689e-03   -6.373659e-03 -2.181399e-19 -1.404287e-03 2.000000e-01  1.000000e+00  
-2.500000e-01  -2.000000e+00  -1.750000e+00  0  2191 0  3.402888e-04 2.974196e-02 2.060996e-03   7.250601e-03 -8.910803e-20 -1.550799e-03 2.000000e-01  1.000000e+00  
-2.500000e-01  -1.750000e+00  -1.750000e+00  0  2199 0  2.939343e-04 2.552511e-02 1.476689e-03   6.373659e-03 -3.862099e-20 -1.404287e-03 2.000000e-01  1.000000e+00  
0.000000e+00  -2.000000e+00  -2.000000e+00  0  2104 0  3.135914e-04 3.086032e-02 -3.051753e-03   -8.375346e-03 -3.172828e-19 -8.095892e-04 2.000000e-01  1.000000e+00  
0.000000e+00  -1.750000e+00  -2.000000e+00  0  2112 0  3.431030e-04 2.695698e-02 -1.508286e-03   -7.252292e-03 -3.031849e-19 -6.505718e-04 2.000000e-01  1.000000e+00  
0.000000e+00  -2.000000e+00  -1.750000e+00  0  2192 0  3.135914e-04 3.086032e-02 3.051753e-03   8.375346e-03 -7.529968e-20 -8.095892e-04 2.000000e-01  1.000000e+00  
0.000000e+00  -1.750000e+00  -1.750000e+00  0  2200 0  3.431030e-04 2.695698e-02 1.508286e-03   7.252292e-03 -4.965789e-20 -6.505718e-04 2.000000e-01  1.000000e+00  
-1.750000e+00  -1.500000e+00  -2.000000e+00  0  1087 0  1.180032e-04 1.530529e-03 -1.180032e-04   -1.691881e-04 -1.413240e-20 -1.691881e-04 2.000000e-01  1.000000e+00  
-2.000000e+00  -1.500000e+00  -2.000000e+00  0  1086 0  -1.180032e-04 1.530529e-03 -1.180032e-04   -1.691881e-04 -1.736696e-20 1.691881e-04 2.000000e-01  1.000000e+00  
-1.750000e+00  -1.500000e+00  -1.750000e+00  0  1208 0  1.180032e-04 1.530529e-03 1.180032e-04   1.691881e-04 -2.648774e-21 -1.691881e-04 2.000000e-01  1.000000e+00  
-2.000000e+00  -1.500000e+00  -1.750000e+00  0  1207 0  -1.180032e-04 1.530529e-03 1.180032e-04   1.691881e-04 -4.540721e-21 1.691881e-04 2.000000e-01  1.000000e+00  
-1.500000e+00  -1.500000e+00  -2.000000e+00  0  1088 0  2.923326e-04 2.385774e-03 -2.194692e-04   -3.678948e-04 -3.763703e-20 -5.066538e-04 2.000000e-01  1.000000e+00  
-1.500000e+00  -1.500000e+00  -1.750000e+00  0  1209 0  2.923326e-04 2.385774e-03 2.194692e-04   3.678948e-04 8.566797e-21 -5.066538e-04 2.000000e-01  1.000000e+00  
-1.250000e+00  -1.500000e+00  -2.000000e+00  0  2115 0  6.345155e-04 4.791130e-03 -5.688889e-04   -8.536103e-04 -3.645517e-20 -9.538672e-04 2.000000e-01  1.000000e+00  
-1.250000e+00  -1.500000e+00  -1.750000e+00  0  2203 0  6.345155e-04 4.791130e-03 5.688889e-04   8.536103e-04 -1.603730e-20 -9.538672e-04 2.000000e-01  1.000000e+00  
-1.000000e+00  -1.500000e+00  -2.000000e+00  0  2116 0  7.737269e-04 7.516011e-03 -1.086587e-03   -1.664378e-03 -4.633106e-20 -1.341094e-03 2.000000e-01  1.000000e+00  
-1.000000e+00  -1.500000e+00  -1.750000e+00  0  2204 0  7.737269e-04 7.516011e-03 1.086587e-03   1.664378e-03 -1.052458e-20 -1.341094e-03 2.000000e-01  1.000000e+00  
-7.500000e-01  -1.500000e+00  -2.000000e+00  0  2117 0  1.039616e-03 1.208896e-02 -1.737346e-03   -2.737953e-03 -9.501698e-20 -1.645404e-03 2.000000e-01  1.000000e+00  
-7.500000e-01  -1.500000e+00  -1.750000e+00  0  2205 0  1.039616e-03 1.208896e-02 1.737346e-03   2.737953e-03 -1.375889e-20 -1.645404e-03 2.000000e-01  1.000000e+00  
-5.000000e-01  -1.500000e+00  -2.000000e+00  0  2118 0  1.022085e-03 1.592332e-02 -2.770895e-03   -4.058338e-03 -1.275288e-19 -1.630599e-03 2.000000e-01  1.000000e+00  
-5.000000e-01  -1.500000e+00  -1.750000e+00  0  2206 0  1.022085e-03 1.592332e-02 2.770895e-03   4.058338e-03 2.577153e-20 -1.630599e-03 2.000000e-01  1.000000e+00  
-2.500000e-01  -1.500000e+00  -2.000000e+00  0  2119 0  6.554115e-04 2.015829e-02 -3.434470e-03   -5.163491e-03 -1.967916e-19 -1.189939e-03 2.000000e-01  1.000000e+00  
-2.500000e-01  -1.500000e+00  -1.750000e+00  0  2207 0  6.554115e-04 2.015829e-02 3.434470e-03   5.163491e-03 3.301343e-20 -1.189939e-03 2.000000e-01  1.000000e+00  
0.000000e+00  -1.500000e+00  -2.000000e+00  0  2120 0  3.594021e-04 2.216963e-02 -3.981571e-03   -5.894555e-03 -2.652683e-19 -4.800511e-04 2.000000e-01  1.000000e+00  
0.000000e+00  -1.500000e+00  -1.750000e+00  0  2208 0  3.594021e-04 2.216963e-02 3.981571e-03   5.894555e-03 -3.465942e-20 -4.800511e-04 2.000000e-01  1.000000e+00  
-1.750000e+00  -1.250000e+00  -2.000000e+00  0  3012 0  1.096975e-04 1.075128e-03 -1.096975e-04   -1.173480e-04 -1.028560e-20 -1.173480e-04 2.000000e-01  1.000000e+00  
-2.000000e+00  -1.250000e+00  -2.000000e+00  0  3011 0  -1.096975e-04 1.075128e-03 -1.096975e-04   -1.173480e-04 -1.383876e-20 1.173480e-04 2.000000e-01  1.000000e+00  
-1.750000e+00  -1.250000e+00  -1.750000e+00  0  3100 0  1.096975e-04 1.075128e-03 1.096975e-04   1.173480e-04 3.684883e-22 -1.173480e-04 2.000000e-01  1.000000e+00  
-2.000000e+00  -1.250000e+00  -1.750000e+00  0  3099 0  -1.096975e-04 1.075128e-03 1.096975e-04   1.173480e-04 -4.294342e-21 1.173480e-04 2.000000e-01  1.000000e+00  
-1.500000e+00  -1.250000e+00  -2.000000e+00  0  3013 0  3.214614e-04 1.770512e-03 -2.374003e-04   -2.613172e-04 -1.029799e-20 -3.704922e-04 2.000000e-01  1.000000e+00  
-1.500000e+00  -1.250000e+00  -1.750000e+00  0  3101 0  3.214614e-04 1.770512e-03 2.374003e-04   2.613172e-04 1.586537e-20 -3.704922e-04 2.000000e-01  1.000000e+00  
-1.250000e+00  -1.250000e+00  -2.000000e+00  0  3779 0  6.017188e-04 3.215623e-03 -5.425708e-04   -5.864473e-04 -1.452233e-20 -6.703058e-04 2.000000e-01  1.000000e+00  
-1.250000e+00  -1.250000e+00  -1.750000e+00  0  3843 0  6.017188e-04 3.215623e-03 5.425708e-04   5.864473e-04 -1.020522e-20 -6.703058e-04 2.000000e-01  1.000000e+00  
-1.000000e+00  -1.250000e+00  -2.000000e+00  0  3780 0  8.457248e-04 5.447222e-03 -1.063032e-03   -1.143208e-03 -3.401421e-20 -9.735402e-04 2.000000e-01  1.000000e+00  
-1.000000e+00  -1.250000e+00  -1.750000e+00  0  3844 0  8.457248e-04 5.447222e-03 1.063032e-03   1.143208e-03 -2.214479e-20 -9.735402e-04 2.000000e-01  1.000000e+00  
-7.500000e-01  -1.250000e+00  -2.000000e+00  0  3781 0  1.010901e-03 8.122135e-03 -1.717579e-03   -1.892663e-03 -8.834359e-20 -1.170000e-03 2.000000e-01  1.000000e+00  
-7.500000e-01  -1.250000e+00  -1.750000e+00  0  3845 0  1.010901e-03 8.122135e-03 1.717579e-03   1.892663e-03 4.612070e-21 -1.170000e-03 2.000000e-01  1.000000e+00  
-5.000000e-01  -1.250000e+00  -2.000000e+00  0  3782 0  1.039406e-03 1.105663e-02 -2.596716e-03   -2.738999e-03 -8.815329e-20 -1.150938e-03 2.000000e-01  1.000000e+00  
-5.000000e-01  -1.250000e+00  -1.750000e+00  0  3846 0  1.039406e-03 1.105663e-02 2.596716e-03   2.738999e-03 6.334546e-20 -1.150938e-03 2.000000e-01  1.000000e+00  
-2.500000e-01  -1.250000e+00  -2.000000e+00  0  3783 0  8.138533e-04 1.332652e-02 -3.488598e-03   -3.462749e-03 -1.382217e-19 -8.508424e-04 2.000000e-01  1.000000e+00  
-2.500000e-01  -1.250000e+00  -1.750000e+00  0  3847 0  8.138533e-04 1.332652e-02 3.488598e-03   3.462749e-03 6.745349e-20 -8.508424e-04 2.000000e-01  1.000000e+00  
0.000000e+00  -1.250000e+00  -2.000000e+00  0  3784 0  3.295776e-04 1.471342e-02 -4.163621e-03   -3.893540e-03 -2.156680e-19 -3.135256e-04 2.000000e-01  1.000000e+00  
0.000000e+00  -1.250000e+00  -1.750000e+00  0  3848 0  3.295776e-04 1.471342e-02 4.163621e-03   3.893540e-03 7.794316e-21 -3.135256e-04 2.000000e-01  1.000000e+00  
-1.750000e+00  -1.000000e+00  -2.000000e+00  0  3023 0  8.603585e-05 6.836609e-04 -8.603585e-05   -7.341598e-05 -6.424786e-21 -7.341598e-05 2.000000e-01  1.000000e+00  
-2.000000e+00  -1.000000e+00  -2.000000e+00  0  3022 0  -8.603585e-05 6.836609e-04 -8.603585e-05   -7.341598e-05 -8.482114e-21 7.341598e-05 2.000000e-01  1.000000e+00  
-1.750000e+00  -1.000000e+00  -1.750000e+00  0  3111 0  8.603585e-05 6.836609e-04 8.603585e-05   7.341598e-05 5.414456e-21 -7.341598e-05 2.000000e-01  1.000000e+00  
-2.000000e+00  -1.000000e+00  -1.750000e+00  0  3110 0  -8.603585e-05 6.836609e-04 8.603585e-05   7.341598e-05 4.363927e-22 7.341598e-05 2.000000e-01  1.000000e+00  
-1.500000e+00  -1.000000e+00  -2.000000e+00  0  3024 0  2.775334e-04 1.128851e-03 -1.967325e-04   -1.606844e-04 2.885657e-21 -2.375578e-04 2.000000e-01  1.000000e+00  
-1.500000e+00  -1.000000e+00  -1.750000e+00  0  3112 0  2.775334e-04 1.128851e-03 1.967325e-04   1.606844e-04 1.428499e-20 -2.375578e-04 2.000000e-01  1.000000e+00  
-1.250000e+00  -1.000000e+00  -2.000000e+00  0  3787 0  4.865970e-04 1.960712e-03 -4.305476e-04   -3.543993e-04 -1.306984e-21 -4.236345e-04 2.000000e-01  1.000000e+00  
-1.250000e+00  -1.000000e+00  -1.750000e+00  0  3851 0  4.865970e-04 1.960712e-03 4.305476e-04   3.543993e-04 -1.519931e-21 -4.236345e-04 2.000000e-01  1.000000e+00  
-1.000000e+00  -1.000000e+00  -2.000000e+00  0  3788 0  7.228226e-04 3.341251e-03 -8.444998e-04   -6.837702e-04 -3.972947e-20 -6.176834e-04 2.000000e-01  1.000000e+00  
-1.000000e+00  -1.000000e+00  -1.750000e+00  0  3852 0  7.228226e-04 3.341251e-03 8.444998e-04   6.837702e-04 -1.745547e-20 -6.176834e-04 2.000000e-01  1.000000e+00  
-7.500000e-01  -1.000000e+00  -2.000000e+00  0  3789 0  8.463273e-04 4.938926e-03 -1.375389e-03   -1.143532e-03 -6.919070e-20 -7.444190e-04 2.000000e-01  1.000000e+00  
-7.500000e-01  -1.000000e+00  -1.750000e+00  0  3853 0  8.463273e-04 4.938926e-03 1.375389e-03   1.143532e-03 1.138145e-20 -7.444190e-04 2.000000e-01  1.000000e+00  
-5.000000e-01  -1.000000e+00  -2.000000e+00  0  3790 0  7.749984e-04 6.788811e-03 -1.804163e-03   -1.665257e-03 -3.811205e-20 -7.332349e-04 2.000000e-01  1.000000e+00  
-5.000000e-01  -1.000000e+00  -1.750000e+00  0  3854 0  7.749984e-04 6.788811e-03 1.804163e-03   1.665257e-03 3.259142e-20 -7.332349e-04 2.000000e-01  1.000000e+00  
-2.500000e-01  -1.000000e+00  -2.000000e+00  0  3791 0  5.210394e-04 8.226781e-03 -1.957592e-03   -2.130065e-03 -7.244104e-20 -5.444076e-04 2.000000e-01  1.000000e+00  
-2.500000e-01  -1.000000e+00  -1.750000e+00  0  3855 0  5.210394e-04 8.226781e-03 1.957592e-03   2.130065e-03 2.582378e-20 -5.444076e-04 2.000000e-01  1.000000e+00  
0.000000e+00  -1.000000e+00  -2.000000e+00  0  3792 0  1.646451e-04 9.128634e-03 -1.915384e-03   -2.401423e-03 -1.203099e-19 -1.974008e-04 2.000000e-01  1.000000e+00  
0.000000e+00  -1.000000e+00  -1.750000e+00  0  3856 0  1.646451e-04 9.128634e-03 1.915384e-03   2.401423e-03 2.276352e-20 -1.974008e-04 2.000000e-01  1.000000e+00  
-1.750000e+00  -7.500000e-01  -2.000000e+00  0  3034 0  5.895213e-05 3.936850e-04 -5.895213e-05   -4.147230e-05 -5.341355e-21 -4.147230e-05 2.000000e-01  1.000000e+00  
-2.000000e+00  -7.500000e-01  -2.000000e+00  0  3033 0  -5.895213e-05 3.936850e-04 -5.895213e-05   -4.147230e-05 -3.480930e-21 4.147230e-05 2.000000e-01  1.000000e+00  
-1.750000e+00  -7.500000e-01  -1.750000e+00  0  3122 0  5.895213e-05 3.936850e-04 5.895213e-05   4.147230e-05 4.754916e-21 -4.147230e-05 2.000000e-01  1.000000e+00  
-2.000000e+00  -7.500000e-01  -1.750000e+00  0  3121 0  -5.895213e-05 3.936850e-04 5.895213e-05   4.147230e-05 5.557919e-22 4.147230e-05 2.000000e-01  1.000000e+00  
-1.500000e+00  -7.500000e-01  -2.000000e+00  0  3035 0  1.935168e-04 6.212018e-04 -1.298422e-04   -8.566155e-05 -1.336956e-21 -1.334205e-04 2.000000e-01  1.000000e+00  
-1.500000e+00  -7.500000e-01  -1.750000e+00  0  3123 0  1.935168e-04 6.212018e-04 1.298422e-04   8.566155e-05 7.137322e-21 -1.334205e-04 2.000000e-01  1.000000e+00  
-1.250000e+00  -7.500000e-01  -2.000000e+00  0  3795 0  3.395017e-04 1.073952e-03 -2.822381e-04   -1.865011e-04 4.038578e-21 -2.389727e-04 2.000000e-01  1.000000e+00  
-1.250000e+00  -7.500000e-01  -1.750000e+00  0  3859 0  3.395017e-04 1.073952e-03 2.822381e-04   1.865011e-04 2.415083e-22 -2.389727e-04 2.000000e-01  1.000000e+00  
-1.000000e+00  -7.500000e-01  -2.000000e+00  0  3796 0  4.866672e-04 1.755421e-03 -5.319138e-04   -3.545758e-04 -1.843420e-20 -3.444045e-04 2.000000e-01  1.000000e+00  
-1.000000e+00  -7.500000e-01  -1.750000e+00  0  3860 0  4.866672e-04 1.755421e-03 5.319138e-04   3.545758e-04 -2.645548e-21 -3.444045e-04 2.000000e-01  1.000000e+00  
-7.500000e-01  -7.500000e-01  -2.000000e+00  0  3797 0  6.016400e-04 2.598950e-03 -9.355262e-04   -5.869311e-04 -2.761837e-20 -4.150669e-04 2.000000e-01  1.000000e+00  
-7.500000e-01  -7.500000e-01  -1.750000e+00  0  3861 0  6.016400e-04 2.598950e-03 9.355262e-04   5.869311e-04 -1.235131e-21 -4.150669e-04 2.000000e-01  1.000000e+00  
-5.000000e-01  -7.500000e-01  -2.000000e+00  0  3798 0  6.340902e-04 3.506852e-03 -1.545735e-03   -8.544817e-04 -1.693454e-20 -4.112182e-04 2.000000e-01  1.000000e+00  
-5.000000e-01  -7.500000e-01  -1.750000e+00  0  3862 0  6.340902e-04 3.506852e-03 1.545735e-03   8.544817e-04 -3.187422e-21 -4.112182e-04 2.000000e-01  1.000000e+00  
-2.500000e-01  -7.500000e-01  -2.000000e+00  0  3799 0  5.112957e-04 4.298895e-03 -2.279108e-03   -1.102457e-03 -5.090410e-20 -3.079987e-04 2.000000e-01  1.000000e+00  
-2.500000e-01  -7.500000e-01  -1.750000e+00  0  3863 0  5.112957e-04 4.298895e-03 2.279108e-03   1.102457e-03 -6.167378e-21 -3.079987e-04 2.000000e-01  1.000000e+00  
0.000000e+00  -7.500000e-01  -2.000000e+00  0  3800 0  1.971152e-04 4.769278e-03 -2.805733e-03   -1.254210e-03 -4.436176e-20 -1.144674e-04 2.000000e-01  1.000000e+00  
0.000000e+00  -7.500000e-01  -1.750000e+00  0  3864 0  1.971152e-04 4.769278e-03 2.805733e-03   1.254210e-03 2.387886e-20 -1.144674e-04 2.000000e-01  1.000000e+00  
-1.750000e+00  -5.000000e-01  -2.000000e+00  0  3045 0  3.325337e-05 2.092740e-04 -3.325337e-05   -2.151824e-05 -2.277810e-21 -2.151824e-05 2.000000e-01  1.000000e+00  
-2.000000e+00  -5.000000e-01  -2.000000e+00  0  3044 0  -3.325337e-05 2.092740e-04 -3.325337e-05   -2.151824e-05 -1.355596e-21 2.151824e-05 2.000000e-01  1.000000e+00  
-1.750000e+00  -5.000000e-01  -1.750000e+00  0  3133 0  3.325337e-05 2.092740e-04 3.325337e-05   2.151824e-05 1.296218e-21 -2.151824e-05 2.000000e-01  1.000000e+00  
-2.000000e+00  -5.000000e-01  -1.750000e+00  0  3132 0  -3.325337e-05 2.092740e-04 3.325337e-05   2.151824e-05 -4.305244e-22 2.151824e-05 2.000000e-01  1.000000e+00  
-1.500000e+00  -5.000000e-01  -2.000000e+00  0  3046 0  1.057527e-04 3.094636e-04 -6.703759e-05   -4.102083e-05 -2.374739e-21 -6.782868e-05 2.000000e-01  1.000000e+00  
-1.500000e+00  -5.000000e-01  -1.750000e+00  0  3134 0  1.057527e-04 3.094636e-04 6.703759e-05   4.102083e-05 2.000866e-21 -6.782868e-05 2.000000e-01  1.000000e+00  
-1.250000e+00  -5.000000e-01  -2.000000e+00  0  3803 0  1.935707e-04 5.210052e-04 -1.517642e-04   -8.572024e-05 3.406526e-21 -1.211799e-04 2.000000e-01  1.000000e+00  
-1.250000e+00  -5.000000e-01  -1.750000e+00  0  3867 0  1.935707e-04 5.210052e-04 1.517642e-04   8.572024e-05 -8.254015e-22 -1.211799e-04 2.000000e-01  1.000000e+00  
-1.000000e+00  -5.000000e-01  -2.000000e+00  0  3804 0  2.777741e-04 8.225631e-04 -2.885193e-04   -1.608795e-04 2.259578e-21 -1.733341e-04 2.000000e-01  1.000000e+00  
-1.000000e+00  -5.000000e-01  -1.750000e+00  0  3868 0  2.777741e-04 8.225631e-04 2.885193e-04   1.608795e-04 3.082105e-21 -1.733341e-04 2.000000e-01  1.000000e+00  
-7.500000e-01  -5.000000e-01  -2.000000e+00  0  3805 0  3.220243e-04 1.192383e-03 -4.242421e-04   -2.617587e-04 -5.155678e-21 -2.063946e-04 2.000000e-01  1.000000e+00  
-7.500000e-01  -5.000000e-01  -1.750000e+00  0  3869 0  3.220243e-04 1.192383e-03 4.242421e-04   2.617587e-04 2.405424e-21 -2.063946e-04 2.000000e-01  1.000000e+00  
-5.000000e-01  -5.000000e-01  -2.000000e+00  0  3806 0  2.932154e-04 1.535439e-03 -4.688361e-04   -3.686839e-04 -3.182509e-21 -2.000057e-04 2.000000e-01  1.000000e+00  
-5.000000e-01  -5.000000e-01  -1.750000e+00  0  3870 0  2.932154e-04 1.535439e-03 4.688361e-04   3.686839e-04 -9.906557e-21 -2.000057e-04 2.000000e-01  1.000000e+00  
-2.500000e-01  -5.000000e-01  -2.000000e+00  0  3807 0  1.970138e-04 1.801040e-03 -3.945858e-04   -4.552182e-04 -1.785656e-20 -1.456129e-04 2.000000e-01  1.000000e+00  
-2.500000e-01  -5.000000e-01  -1.750000e+00  0  3871 0  1.970138e-04 1.801040e-03 3.945858e-04   4.552182e-04 -2.334526e-20 -1.456129e-04 2.000000e-01  1.000000e+00  
0.000000e+00  -5.000000e-01  -2.000000e+00  0  3808 0  6.912014e-05 1.932773e-03 -2.970075e-04   -5.023864e-04 -8.508563e-21 -5.353726e-05 2.000000e-01  1.000000e+00  
0.000000e+00  -5.000000e-01  -1.750000e+00  0  3872 0  6.912014e-05 1.932773e-03 2.970075e-04   5.023864e-04 4.170035e-21 -5.353726e-05 2.000000e-01  1.000000e+00  
-1.750000e+00  -2.500000e-01  -2.000000e+00  0  3056 0  1.080024e-05 1.211668e-04 -1.080024e-05   -1.209838e-05 -3.220578e-22 -1.209838e-05 2.000000e-01  1.000000e+00  
-2.000000e+00  -2.500000e-01  -2.000000e+00  0  3055 0  -1.080024e-05 1.211668e-04 -1.080024e-05   -1.209838e-05 -1.080613e-21 1.209838e-05 2.000000e-01  1.000000e+00  
-1.750000e+00  -2.500000e-01  -1.750000e+00  0  3144 0  1.080024e-05 1.211668e-04 1.080024e-05   1.209838e-05 3.951260e-22 -1.209838e-05 2.000000e-01  1.000000e+00  
-2.000000e+00  -2.500000e-01  -1.750000e+00  0  3143 0  -1.080024e-05 1.211668e-04 1.080024e-05   1.209838e-05 -2.208700e-22 1.209838e-05 2.000000e-01  1.000000e+00  
-1.500000e+00  -2.500000e-01  -2.000000e+00  0  3057 0  3.326380e-05 1.711405e-04 -2.037613e-05   -2.153597e-05 -9.129958e-22 -3.770723e-05 2.000000e-01  1.000000e+00  
-1.500000e+00  -2.500000e-01  -1.750000e+00  0  3145 0  3.326380e-05 1.711405e-04 2.037613e-05   2.153597e-05 6.223904e-22 -3.770723e-05 2.000000e-01  1.000000e+00  
-1.250000e+00  -2.500000e-01  -2.000000e+00  0  3811 0  5.898231e-05 2.662427e-04 -4.037102e-05   -4.153946e-05 3.770625e-22 -6.573850e-05 2.000000e-01  1.000000e+00  
-1.250000e+00  -2.500000e-01  -1.750000e+00  0  3875 0  5.898231e-05 2.662427e-04 4.037102e-05   4.153946e-05 1.836202e-22 -6.573850e-05 2.000000e-01  1.000000e+00  
-1.000000e+00  -2.500000e-01  -2.000000e+00  0  3812 0  8.605187e-05 3.999923e-04 -8.540587e-05   -7.357908e-05 3.877496e-21 -9.263213e-05 2.000000e-01  1.000000e+00  
-1.000000e+00  -2.500000e-01  -1.750000e+00  0  3876 0  8.605187e-05 3.999923e-04 8.540587e-05   7.357908e-05 5.128842e-21 -9.263213e-05 2.000000e-01  1.000000e+00  
-7.500000e-01  -2.500000e-01  -2.000000e+00  0  3813 0  1.096222e-04 5.603356e-04 -1.886300e-04   -1.176513e-04 -3.115649e-21 -1.100928e-04 2.000000e-01  1.000000e+00  
-7.500000e-01  -2.500000e-01  -1.750000e+00  0  3877 0  1.096222e-04 5.603356e-04 1.886300e-04   1.176513e-04 6.509276e-21 -1.100928e-04 2.000000e-01  1.000000e+00  
-5.000000e-01  -2.500000e-01  -2.000000e+00  0  3814 0  1.177962e-04 7.322042e-04 -3.742081e-04   -1.696480e-04 3.629707e-22 -1.080902e-04 2.000000e-01  1.000000e+00  
-5.000000e-01  -2.500000e-01  -1.750000e+00  0  3878 0  1.177962e-04 7.322042e-04 3.742081e-04   1.696480e-04 2.402837e-21 -1.080902e-04 2.000000e-01  1.000000e+00  
-2.500000e-01  -2.500000e-01  -2.000000e+00  0  3815 0  9.467020e-05 8.827220e-04 -6.032504e-04   -2.186293e-04 -2.059814e-21 -8.030136e-05 2.000000e-01  1.000000e+00  
-2.500000e-01  -2.500000e-01  -1.750000e+00  0  3879 0  9.467020e-05 8.827220e-04 6.032504e-04   2.186293e-04 -4.346733e-21 -8.030136e-05 2.000000e-01  1.000000e+00  
0.000000e+00  -2.500000e-01  -2.000000e+00  0  3816 0  3.696299e-05 9.737734e-04 -7.680752e-04   -2.490960e-04 -3.105337e-21 -2.980146e-05 2.000000e-01  1.000000e+00  
0.000000e+00  -2.500000e-01  -1.750000e+00  0  3880 0  3.696299e-05 9.737734e-04 7.680752e-04   2.490960e-04 7.417480e-22 -2.980146e-05 2.000000e-01  1.000000e+00  
-1.750000e+00  0.000000e+00  -2.000000e+00  0  3067 0  -1.080024e-05 1.211668e-04 1.080024e-05   -1.209838e-05 -4.788302e-22 -1.209838e-05 2.000000e-01  1.000000e+00  
-2.000000e+00  0.000000e+00  -2.000000e+00  0  3066 0  1.080024e-05 1.211668e-04 1.080024e-05   -1.209838e-05 -1.000602e-21 1.209838e-05 2.000000e-01  1.000000e+00  
-1.750000e+00  0.000000e+00  -1.750000e+00  0  3155 0  -1.080024e-05 1.211668e-04 -1.080024e-05   1.209838e-05 -2.992193e-22 -1.209838e-05 2.000000e-01  1.000000e+00  
-2.000000e+00  0.000000e+00  -1.750000e+00  0  3154 0  1.080024e-05 1.211668e-04 -1.080024e-05   1.209838e-05 -1.977677e-23 1.209838e-05 2.000000e-01  1.000000e+00  
-1.500000e+00  0.000000e+00  -2.000000e+00  0  3068 0  -3.326380e-05 1.711405e-04 2.037613e-05   -2.153597e-05 -1.702008e-21 -3.770723e-05 2.000000e-01  1.000000e+00  
-1.500000e+00  0.000000e+00  -1.750000e+00  0  3156 0  -3.326380e-05 1.711405e-04 -2.037613e-05   2.153597e-05 -2.649873e-22 -3.770723e-05 2.000000e-01  1.000000e+00  
-1.250000e+00  0.000000e+00  -2.000000e+00  0  3819 0  -5.898231e-05 2.662427e-04 4.037102e-05   -4.153946e-05 1.124374e-21 -6.573850e-05 2.000000e-01  1.000000e+00  
-1.250000e+00  0.000000e+00  -1.750000e+00  0  3883 0  -5.898231e-05 2.662427e-04 -4.037102e-05   4.153946e-05 -1.478673e-22 -6.573850e-05 2.000000e-01  1.000000e+00  
-1.000000e+00  0.000000e+00  -2.000000e+00  0  3820 0  -8.605187e-05 3.999923e-04 8.540587e-05   -7.357908e-05 3.721047e-21 -9.263213e-05 2.000000e-01  1.000000e+00  
-1.000000e+00  0.000000e+00  -1.750000e+00  0  3884 0  -8.605187e-05 3.999923e-04 -8.540587e-05   7.357908e-05 -1.950550e-22 -9.263213e-05 2.000000e-01  1.000000e+00  
-7.500000e-01  0.000000e+00  -2.000000e+00  0  3821 0  -1.096222e-04 5.603356e-04 1.886300e-04   -1.176513e-04 3.609837e-21 -1.100928e-04 2.000000e-01  1.000000e+00  
-7.500000e-01  0.000000e+00  -1.750000e+00  0  3885 0  -1.096222e-04 5.603356e-04 -1.886300e-04   1.176513e-04 -1.053336e-21 -1.100928e-04 2.000000e-01  1.000000e+00  
-5.000000e-01  0.000000e+00  -2.000000e+00  0  3822 0  -1.177962e-04 7.322042e-04 3.742081e-04   -1.696480e-04 3.318506e-21 -1.080902e-04 2.000000e-01  1.000000e+00  
-5.000000e-01  0.000000e+00  -1.750000e+00  0  3886 0  -1.177962e-04 7.322042e-04 -3.742081e-04   1.696480e-04 -1.576244e-21 -1.080902e-04 2.000000e-01  1.000000e+00  
-2.500000e-01  0.000000e+00  -2.000000e+00  0  3823 0  -9.467020e-05 8.827220e-04 6.032504e-04   -2.186293e-04 9.164489e-22 -8.030136e-05 2.000000e-01  1.000000e+00  
-2.500000e-01  0.000000e+00  -1.750000e+00  0  3887 0  -9.467020e-05 8.827220e-04 -6.032504e-04   2.186293e-04 -9.082119e-21 -8.030136e-05 2.000000e-01  1.000000e+00  
0.000000e+00  0.000000e+00  -2.000000e+00  0  3824 0  -3.696299e-05 9.737734e-04 7.680752e-04   -2.490960e-04 5.007088e-21 -2.980146e-05 2.000000e-01  1.000000e+00  
0.000000e+00  0.000000e+00  -1.750000e+00  0  3888 0  -3.696299e-05 9.737734e-04 -7.680752e-04   2.490960e-04 -8.999254e-21 -2.980146e-05 2.000000e-01  1.000000e+00  
-2.000000e+00  -2.000000e+00  -1.500000e+00  0  1306 0  -5.135165e-05 3.014042e-03 6.874987e-05   6.732765e-04 1.905838e-20 5.009843e-04 2.000000e-01  1.000000e+00  
-1.750000e+00  -2.000000e+00  -1.500000e+00  0  1307 0  5.135165e-05 3.014042e-03 6.874987e-05   6.732765e-04 1.960626e-21 -5.009843e-04 2.000000e-01  1.000000e+00  
-1.750000e+00  -1.750000e+00  -1.500000e+00  0  1318 0  1.469723e-04 2.814831e-03 1.961265e-04   6.147879e-04 3.142553e-21 -4.540597e-04 2.000000e-01  1.000000e+00  
-2.000000e+00  -1.750000e+00  -1.500000e+00  0  1317 0  -1.469723e-04 2.814831e-03 1.961265e-04   6.147879e-04 2.837791e-20 4.540597e-04 2.000000e-01  1.000000e+00  
-1.500000e+00  -2.000000e+00  -1.500000e+00  0  1308 0  3.082083e-04 8.171837e-03 3.082083e-04   2.005071e-03 5.594739e-21 -2.005071e-03 2.000000e-01  1.000000e+00  
-1.500000e+00  -1.750000e+00  -1.500000e+00  0  1319 0  7.880880e-04 6.772540e-03 7.880880e-04   1.736603e-03 2.905253e-20 -1.736603e-03 2.000000e-01  1.000000e+00  
-1.250000e+00  -2.000000e+00  -1.500000e+00  0  2275 0  2.910855e-04 9.585577e-03 5.218668e-04   4.527007e-03 1.052674e-19 -3.325940e-03 2.000000e-01  1.000000e+00  
-1.250000e+00  -1.750000e+00  -1.500000e+00  0  2283 0  9.158187e-04 9.433936e-03 1.474102e-03   4.030660e-03 1.229133e-19 -3.038639e-03 2.000000e-01  1.000000e+00  
-1.000000e+00  -2.000000e+00  -1.500000e+00  0  2276 0  1.045269e-03 2.843822e-02 1.381756e-03   9.669948e-03 5.369498e-20 -6.136156e-03 2.000000e-01  1.000000e+00  
-1.000000e+00  -1.750000e+00  -1.500000e+00  0  2284 0  2.396866e-03 2.306795e-02 3.386729e-03   8.460390e-03 1.330800e-19 -5.271678e-03 2.000000e-01  1.000000e+00  
-7.500000e-01  -2.000000e+00  -1.500000e+00  0  2277 0  6.857711e-04 2.973798e-02 2.382545e-03   1.710378e-02 1.356563e-19 -6.921667e-03 2.000000e-01  1.000000e+00  
-7.500000e-01  -1.750000e+00  -1.500000e+00  0  2285 0  1.947206e-03 2.846968e-02 6.002875e-03   1.496392e-02 3.842519e-19 -6.274556e-03 2.000000e-01  1.000000e+00  
-5.000000e-01  -2.000000e+00  -1.500000e+00  0  2278 0  7.435713e-04 5.825737e-02 2.429714e-03   2.491002e-02 -5.661655e-20 -7.488659e-03 2.000000e-01  1.000000e+00  
-5.000000e-01  -1.750000e+00  -1.500000e+00  0  2286 0  2.824096e-03 4.841362e-02 8.775202e-03   2.203806e-02 2.729369e-19 -6.597653e-03 2.000000e-01  1.000000e+00  
-2.500000e-01  -2.000000e+00  -1.500000e+00  0  2279 0  -3.869124e-06 5.794597e-02 1.629152e-03   3.336077e-02 -2.615632e-19 -6.125773e-03 2.000000e-01  1.000000e+00  