VARIABLES="X", "Y", "Z", "Maximum Refinment Level", "Temp_ID", "Thread","Ex (corner node)","Ey (corner node)","Ez (corner node)", "Number Density[1/m^3]", "Particle Number", "Vx [m/s]", "Vy [m/s]", "Vz [m/s]", "|V| [m/s]", "Translational Temperature [K]", "Parallel Translational Temperature [K]", "Tangential Translational Temperature [K]","Bx (center node)","By (center node)","Bz (center node)", "Local Time Step" , "log10(Local Particle Weight)" 
ZONE N=5049, E=4096, DATAPACKING=POINT, ZONETYPE=FEBRICK
-1.600000e+01  -8.000000e+00  -4.000000e+00  0  301 0  6.624193e-04 -1.130621e-03 3.047709e-04   6.619354e-02 8.318125e+01 -2.401348e-03 2.542797e-04 2.313297e-04 2.399482e-02 2.724067e-08 2.803303e-08 2.645782e-08 -3.361946e-05 3.840093e-02 -4.785742e-04 1.000000e+00  7.957747e-04  
-1.500000e+01  -8.000000e+00  -4.000000e+00  0  302 0  1.510781e-03 1.063551e-03 1.744419e-03   6.833715e-02 8.587500e+01 -1.149734e-03 -3.252770e-05 2.788136e-04 2.387945e-02 2.709674e-08 2.862977e-08 2.602792e-08 1.449752e-04 3.854853e-02 -4.107489e-04 1.000000e+00  7.957747e-04  
-1.500000e+01  -7.000000e+00  -4.000000e+00  0  321 0  5.170823e-04 -3.574091e-04 9.240061e-04   7.334556e-02 9.216875e+01 -1.143628e-03 -3.862708e-04 -1.077006e-04 2.386777e-02 2.719394e-08 2.703389e-08 2.696331e-08 4.340139e-04 3.877280e-02 -1.072322e-04 1.000000e+00  7.957747e-04  
-1.600000e+01  -7.000000e+00  -4.000000e+00  0  320 0  2.235231e-03 3.333167e-04 1.427176e-03   6.995854e-02 8.791250e+01 -2.190884e-03 7.371775e-04 -3.954698e-05 2.398283e-02 2.718344e-08 2.642508e-08 2.711464e-08 1.479663e-04 3.821679e-02 -4.721791e-04 1.000000e+00  7.957747e-04  
-1.600000e+01  -8.000000e+00  -3.000000e+00  0  548 0  3.207517e-03 3.321807e-04 1.556004e-03   6.784477e-02 8.525625e+01 -2.559090e-03 -1.530916e-04 2.203261e-04 2.431678e-02 2.782322e-08 2.723272e-08 2.773053e-08 -2.546060e-04 3.775885e-02 -7.180617e-04 1.000000e+00  7.957747e-04  
-1.500000e+01  -8.000000e+00  -3.000000e+00  0  549 0  -3.667309e-03 -1.642489e-03 2.918991e-03   6.847641e-02 8.605000e+01 -1.924534e-03 1.688140e-05 1.405912e-04 2.430365e-02 2.814698e-08 2.896693e-08 2.739129e-08 1.274684e-04 3.824025e-02 -3.479259e-04 1.000000e+00  7.957747e-04  
-1.500000e+01  -7.000000e+00  -3.000000e+00  0  568 0  -4.309336e-04 7.509384e-04 1.301128e-03   7.267910e-02 9.133125e+01 -9.639962e-04 -9.524355e-05 2.054079e-04 2.432938e-02 2.798435e-08 2.758391e-08 2.788302e-08 -6.262433e-04 3.810786e-02 -4.347098e-04 1.000000e+00  7.957747e-04  
-1.600000e+01  -7.000000e+00  -3.000000e+00  0  567 0  -2.892752e-03 1.108616e-03 1.780362e-03   7.002320e-02 8.799375e+01 -1.817141e-03 3.476684e-04 -4.159317e-04 2.449166e-02 2.812677e-08 2.764909e-08 2.790228e-08 -6.536856e-04 3.748294e-02 -4.740253e-04 1.000000e+00  7.957747e-04  
-1.400000e+01  -8.000000e+00  -4.000000e+00  0  303 0  -1.501592e-03 1.024865e-03 -7.554836e-04   7.299244e-02 9.172500e+01 -6.202729e-04 -2.817797e-04 -1.492803e-05 2.400429e-02 2.728943e-08 2.773063e-08 2.683761e-08 -1.570236e-04 3.925023e-02 -3.536095e-04 1.000000e+00  7.957747e-04  
-1.400000e+01  -7.000000e+00  -4.000000e+00  0  322 0  1.806165e-03 -1.725430e-03 1.895059e-03   7.417615e-02 9.321250e+01 3.146841e-05 -7.500974e-04 -1.743001e-04 2.406202e-02 2.767927e-08 2.866199e-08 2.701320e-08 3.502251e-04 3.937932e-02 -1.864981e-04 1.000000e+00  7.957747e-04  
-1.400000e+01  -8.000000e+00  -3.000000e+00  0  550 0  -6.606214e-04 -9.427461e-04 2.153664e-04   7.411647e-02 9.313750e+01 -7.293649e-04 2.000475e-04 2.403775e-05 2.409472e-02 2.781286e-08 2.844833e-08 2.719437e-08 1.765323e-04 3.951942e-02 -1.240835e-04 1.000000e+00  7.957747e-04  
-1.400000e+01  -7.000000e+00  -3.000000e+00  0  569 0  -1.316737e-03 2.574462e-03 -6.354893e-04   7.616559e-02 9.571250e+01 -3.938817e-04 -6.579337e-04 4.325420e-04 2.425165e-02 2.806169e-08 2.833159e-08 2.772357e-08 -2.978868e-04 3.946175e-02 -3.062913e-04 1.000000e+00  7.957747e-04  
-1.300000e+01  -8.000000e+00  -4.000000e+00  0  1969 0  -6.334290e-04 -1.667495e-03 5.594750e-04   7.566823e-02 9.508750e+01 8.261731e-05 -2.517127e-04 -1.247283e-04 2.463567e-02 2.866370e-08 2.795447e-08 2.870759e-08 -3.646695e-04 3.982757e-02 -8.396138e-04 1.000000e+00  7.957747e-04  
-1.300000e+01  -7.000000e+00  -4.000000e+00  0  1985 0  -7.793076e-04 1.006173e-04 6.377454e-04   7.512113e-02 9.440000e+01 7.519810e-04 -9.337267e-04 -2.861338e-04 2.471478e-02 2.920829e-08 2.949269e-08 2.891372e-08 2.242125e-04 3.985142e-02 -3.027715e-04 1.000000e+00  7.957747e-04  
-1.300000e+01  -8.000000e+00  -3.000000e+00  0  2177 0  1.975466e-04 2.199904e-03 4.431105e-04   7.589204e-02 9.536875e+01 -2.600782e-06 4.227697e-04 9.816551e-05 2.428528e-02 2.801433e-08 2.787865e-08 2.781492e-08 -4.304917e-04 4.059891e-02 -8.124475e-04 1.000000e+00  7.957747e-04  
-1.300000e+01  -7.000000e+00  -3.000000e+00  0  2193 0  2.609400e-03 -2.627895e-03 -6.329958e-05   7.734930e-02 9.720000e+01 7.410108e-05 -2.949418e-04 1.992373e-04 2.483469e-02 2.951891e-08 2.896056e-08 2.951983e-08 1.152618e-04 4.068944e-02 -9.792905e-05 1.000000e+00  7.957747e-04  
-1.200000e+01  -8.000000e+00  -4.000000e+00  0  1970 0  7.744439e-04 1.100796e-03 -2.387830e-03   7.778698e-02 9.775000e+01 1.416461e-03 2.194492e-05 -5.488193e-04 2.489511e-02 2.932404e-08 2.855992e-08 2.953355e-08 -3.216066e-04 4.096301e-02 -9.909635e-05 1.000000e+00  7.957747e-04  
-1.200000e+01  -7.000000e+00  -4.000000e+00  0  1986 0  3.562414e-03 -3.737372e-04 -8.069917e-04   7.513605e-02 9.441875e+01 1.386749e-03 -4.913099e-04 -7.118066e-04 2.524996e-02 3.044034e-08 3.081575e-08 3.010301e-08 1.040615e-04 4.066989e-02 -7.535061e-05 1.000000e+00  7.957747e-04  
-1.200000e+01  -8.000000e+00  -3.000000e+00  0  2178 0  -3.729504e-03 -1.280962e-04 6.547041e-04   7.742391e-02 9.729375e+01 1.087051e-03 3.676443e-04 -2.403804e-04 2.448685e-02 2.850131e-08 2.754029e-08 2.877998e-08 -5.938602e-04 4.118243e-02 1.587815e-04 1.000000e+00  7.957747e-04  
-1.200000e+01  -7.000000e+00  -3.000000e+00  0  2194 0  1.745286e-04 -1.329875e-03 1.557214e-03   7.864741e-02 9.883125e+01 1.436192e-03 -2.272891e-04 -3.698759e-04 2.501202e-02 2.988378e-08 2.833270e-08 3.037178e-08 3.350058e-04 4.082194e-02 -5.288812e-06 1.000000e+00  7.957747e-04  
-1.100000e+01  -8.000000e+00  -4.000000e+00  0  1971 0  2.854833e-04 -5.656709e-04 1.092307e-03   7.870212e-02 9.890000e+01 2.068102e-03 -1.619843e-04 -1.311899e-04 2.489373e-02 2.928352e-08 2.886741e-08 2.920223e-08 -3.333684e-04 4.124762e-02 4.420558e-04 1.000000e+00  7.957747e-04  
-1.100000e+01  -7.000000e+00  -4.000000e+00  0  1987 0  -1.542048e-03 -1.049301e-03 -2.005021e-04   7.513108e-02 9.441250e+01 2.452882e-03 -5.920428e-04 -6.655067e-05 2.494806e-02 2.943491e-08 2.960664e-08 2.902639e-08 4.592526e-04 4.163108e-02 -2.657144e-04 1.000000e+00  7.957747e-04  
-1.100000e+01  -8.000000e+00  -3.000000e+00  0  2179 0  -8.716117e-04 4.255928e-04 5.243665e-04   7.865736e-02 9.884375e+01 1.937038e-03 -9.616656e-05 3.716371e-04 2.457560e-02 2.875518e-08 2.787489e-08 2.891201e-08 -5.903270e-05 4.129534e-02 3.230996e-04 1.000000e+00  7.957747e-04  
-1.100000e+01  -7.000000e+00  -3.000000e+00  0  2195 0  1.665320e-03 -1.114040e-03 -1.041270e-03   7.937853e-02 9.975000e+01 2.579808e-03 -6.312804e-04 -5.341949e-06 2.481808e-02 2.915058e-08 2.847986e-08 2.917723e-08 3.053518e-04 4.085103e-02 -6.088372e-04 1.000000e+00  7.957747e-04  
-1.000000e+01  -8.000000e+00  -4.000000e+00  0  1972 0  3.124664e-03 -3.794604e-05 -3.275994e-03   7.992562e-02 1.004375e+02 2.655158e-03 5.613116e-04 2.516734e-04 2.530866e-02 3.000948e-08 2.980151e-08 2.979317e-08 -2.239186e-04 4.166611e-02 -9.488176e-05 1.000000e+00  7.957747e-04  
-1.000000e+01  -7.000000e+00  -4.000000e+00  0  1988 0  -5.476584e-03 1.415794e-03 -3.030030e-03   8.222342e-02 1.033250e+02 3.034872e-03 2.769666e-04 3.255567e-04 2.506540e-02 2.920997e-08 2.873352e-08 2.914980e-08 3.160291e-04 4.200802e-02 8.011183e-05 1.000000e+00  7.957747e-04  
-1.000000e+01  -8.000000e+00  -3.000000e+00  0  2180 0  -2.647144e-03 2.544042e-03 1.419164e-03   7.595172e-02 9.544375e+01 2.652294e-03 5.589971e-04 1.274541e-03 2.518819e-02 2.998504e-08 2.930933e-08 2.995378e-08 3.568921e-04 4.179695e-02 -9.471335e-05 1.000000e+00  7.957747e-04  
-1.000000e+01  -7.000000e+00  -3.000000e+00  0  2196 0  1.862594e-03 -1.674073e-03 2.878499e-03   8.058711e-02 1.012687e+02 3.241589e-03 3.344225e-04 7.604864e-04 2.502151e-02 2.907669e-08 2.901051e-08 2.878332e-08 -3.577141e-05 4.163220e-02 3.846818e-04 1.000000e+00  7.957747e-04  
-9.000000e+00  -8.000000e+00  -4.000000e+00  0  1973 0  -1.893315e-03 3.039445e-04 -3.630181e-04   7.948795e-02 9.988750e+01 2.826600e-03 1.619766e-05 -5.669978e-04 2.537953e-02 3.028986e-08 2.946856e-08 3.044028e-08 -1.033381e-04 4.294644e-02 -6.110040e-04 1.000000e+00  7.957747e-04  
-9.000000e+00  -7.000000e+00  -4.000000e+00  0  1989 0  -2.849327e-04 2.469239e-05 1.335676e-03   8.010467e-02 1.006625e+02 2.770063e-03 5.473809e-04 -3.390795e-04 2.550928e-02 3.021278e-08 2.919814e-08 3.048571e-08 -1.827908e-05 4.254271e-02 -1.764732e-04 1.000000e+00  7.957747e-04  
-9.000000e+00  -8.000000e+00  -3.000000e+00  0  2181 0  1.905605e-03 8.393211e-06 1.726790e-03   7.821471e-02 9.828750e+01 3.459642e-03 1.206542e-04 -1.916070e-05 2.580585e-02 3.124010e-08 3.012109e-08 3.142770e-08 2.672638e-04 4.269978e-02 -6.003612e-04 1.000000e+00  7.957747e-04  
-9.000000e+00  -7.000000e+00  -3.000000e+00  0  2197 0  -2.166613e-04 2.491154e-04 2.368079e-03   8.086563e-02 1.016188e+02 3.687984e-03 4.206421e-04 6.268818e-04 2.535663e-02 2.962096e-08 2.849279e-08 2.980861e-08 2.184574e-05 4.245138e-02 2.288496e-04 1.000000e+00  7.957747e-04  
-8.000000e+00  -8.000000e+00  -4.000000e+00  0  1974 0  -4.733248e-03 1.162884e-03 2.924908e-04   7.804063e-02 9.806875e+01 3.510109e-03 -4.497431e-04 1.080458e-05 2.574330e-02 3.114926e-08 3.055793e-08 3.125585e-08 2.516217e-04 4.326680e-02 -6.026604e-04 1.000000e+00  7.957747e-04  
-8.000000e+00  -7.000000e+00  -4.000000e+00  0  1990 0  -2.429377e-03 -1.341762e-03 1.763220e-03   7.639437e-02 9.600000e+01 3.605175e-03 -5.609417e-04 5.148625e-04 2.615849e-02 3.150235e-08 3.125117e-08 3.132774e-08 1.384812e-04 4.302282e-02 -5.545009e-04 1.000000e+00  7.957747e-04  
-8.000000e+00  -8.000000e+00  -3.000000e+00  0  2182 0  3.205539e-03 -4.865519e-04 -2.886844e-04   8.060203e-02 1.012875e+02 3.916160e-03 -3.045196e-04 -4.650293e-05 2.628289e-02 3.201889e-08 3.163031e-08 3.199243e-08 -1.841036e-04 4.311660e-02 -5.116986e-04 1.000000e+00  7.957747e-04  
-8.000000e+00  -7.000000e+00  -3.000000e+00  0  2198 0  -3.179893e-05 5.417854e-04 -3.768549e-04   8.409349e-02 1.056750e+02 4.121961e-03 -2.987369e-04 3.734357e-04 2.637137e-02 3.197315e-08 3.107702e-08 3.204342e-08 2.548768e-05 4.301188e-02 -1.245903e-04 1.000000e+00  7.957747e-04  
-7.000000e+00  -8.000000e+00  -4.000000e+00  0  1975 0  3.044969e-03 -8.502221e-04 2.711510e-03   7.761290e-02 9.753125e+01 4.270884e-03 -4.913513e-05 7.638552e-05 2.625126e-02 3.191500e-08 3.167659e-08 3.185872e-08 3.543613e-04 4.298097e-02 7.873504e-05 1.000000e+00  7.957747e-04  
-7.000000e+00  -7.000000e+00  -4.000000e+00  0  1991 0  1.982488e-03 -1.604809e-03 3.569793e-04   8.015938e-02 1.007313e+02 4.813197e-03 -6.470678e-04 7.701968e-04 2.656836e-02 3.200698e-08 3.169651e-08 3.193636e-08 1.390502e-04 4.314148e-02 -2.570827e-05 1.000000e+00  7.957747e-04  
-7.000000e+00  -8.000000e+00  -3.000000e+00  0  2183 0  2.478188e-04 -2.195345e-03 -1.859021e-03   7.806053e-02 9.809375e+01 4.964702e-03 -2.539088e-04 6.783295e-04 2.636654e-02 3.168778e-08 3.226491e-08 3.108779e-08 -4.329625e-04 4.331557e-02 -1.538047e-04 1.000000e+00  7.957747e-04  
-7.000000e+00  -7.000000e+00  -3.000000e+00  0  2199 0  1.626166e-03 -2.080019e-04 -3.391750e-03   8.139283e-02 1.022812e+02 5.234311e-03 -5.351158e-04 6.444542e-04 2.694895e-02 3.288074e-08 3.286867e-08 3.250305e-08 -1.226186e-04 4.331987e-02 1.635076e-04 1.000000e+00  7.957747e-04  
-6.000000e+00  -8.000000e+00  -4.000000e+00  0  1976 0  2.831673e-03 6.960428e-04 -9.484790e-04   7.728465e-02 9.711875e+01 4.556058e-03 -2.033561e-04 -4.016285e-04 2.579714e-02 3.070578e-08 2.880465e-08 3.144206e-08 2.012199e-04 4.288706e-02 3.462466e-04 1.000000e+00  7.957747e-04  
-6.000000e+00  -7.000000e+00  -4.000000e+00  0  1992 0  1.507858e-03 2.293715e-03 3.192191e-04   8.163157e-02 1.025812e+02 5.493175e-03 -5.174908e-05 -2.227561e-04 2.567034e-02 2.996844e-08 2.829571e-08 3.062964e-08 3.074184e-06 4.319518e-02 -1.882580e-04 1.000000e+00  7.957747e-04  
-6.000000e+00  -8.000000e+00  -3.000000e+00  0  2184 0  -1.699482e-03 1.098556e-03 -2.709284e-03   7.834402e-02 9.845000e+01 5.216316e-03 -3.201028e-04 6.881409e-05 2.568110e-02 3.004648e-08 2.879829e-08 3.032614e-08 3.694683e-05 4.356511e-02 -5.866010e-04 1.000000e+00  7.957747e-04  
-6.000000e+00  -7.000000e+00  -3.000000e+00  0  2200 0  -3.962819e-03 -2.045093e-03 7.248825e-05   8.074627e-02 1.014688e+02 5.941684e-03 1.923003e-04 4.876399e-04 2.556308e-02 2.943651e-08 2.770232e-08 2.993531e-08 2.096495e-04 4.357865e-02 -2.116233e-04 1.000000e+00  7.957747e-04  
-5.000000e+00  -8.000000e+00  -4.000000e+00  0  1977 0  -9.680249e-04 2.152866e-03 -2.970742e-03   7.790634e-02 9.790000e+01 4.679401e-03 -3.572324e-04 2.116864e-04 2.568898e-02 3.048835e-08 2.830341e-08 3.135856e-08 5.059917e-04 4.372053e-02 -1.493969e-04 1.000000e+00  7.957747e-04  
-5.000000e+00  -7.000000e+00  -4.000000e+00  0  1993 0  -8.445460e-04 7.034919e-04 -4.811974e-04   8.089547e-02 1.016562e+02 5.257360e-03 3.771927e-04 -3.824689e-05 2.554186e-02 2.996645e-08 2.817819e-08 3.063632e-08 -4.435533e-04 4.363159e-02 -4.932505e-04 1.000000e+00  7.957747e-04  
-5.000000e+00  -8.000000e+00  -3.000000e+00  0  2185 0  5.209086e-04 -3.857035e-04 1.554699e-03   8.133812e-02 1.022125e+02 4.425877e-03 -1.308957e-04 2.571051e-05 2.564592e-02 3.050766e-08 2.812095e-08 3.154643e-08 4.969412e-04 4.355023e-02 -4.455818e-04 1.000000e+00  7.957747e-04  
-5.000000e+00  -7.000000e+00  -3.000000e+00  0  2201 0  1.265476e-04 3.216641e-05 8.394724e-04   8.518271e-02 1.070438e+02 5.406154e-03 2.707813e-04 3.122923e-05 2.532756e-02 2.937094e-08 2.595381e-08 3.090573e-08 3.210645e-04 4.354537e-02 1.017216e-04 1.000000e+00  7.957747e-04  
-4.000000e+00  -8.000000e+00  -4.000000e+00  0  1978 0  -9.641556e-04 -1.491920e-03 1.644667e-04   7.887122e-02 9.911250e+01 4.515205e-03 2.384899e-05 3.179764e-04 2.584151e-02 3.059907e-08 2.918573e-08 3.110798e-08 8.792895e-04 4.427144e-02 6.383457e-04 1.000000e+00  7.957747e-04  
-4.000000e+00  -7.000000e+00  -4.000000e+00  0  1994 0  1.994036e-04 -3.892652e-04 -1.433952e-03   8.007980e-02 1.006312e+02 4.807933e-03 3.977264e-04 3.132088e-04 2.580056e-02 3.048060e-08 2.864221e-08 3.120437e-08 -4.602075e-04 4.401787e-02 2.348527e-04 1.000000e+00  7.957747e-04  
-4.000000e+00  -8.000000e+00  -3.000000e+00  0  2186 0  -2.747500e-03 -2.099840e-04 -2.265505e-04   8.112426e-02 1.019437e+02 4.263416e-03 2.372696e-04 3.737757e-04 2.566987e-02 3.081800e-08 2.947356e-08 3.135658e-08 2.781507e-04 4.383675e-02 4.080064e-04 1.000000e+00  7.957747e-04  
-4.000000e+00  -7.000000e+00  -3.000000e+00  0  2202 0  8.697213e-04 1.840711e-04 1.324850e-03   8.330767e-02 1.046875e+02 4.581643e-03 1.086256e-04 1.100749e-04 2.577357e-02 3.087824e-08 2.788768e-08 3.228834e-08 -5.027784e-05 4.428360e-02 3.004037e-04 1.000000e+00  7.957747e-04  
-3.000000e+00  -8.000000e+00  -4.000000e+00  0  1979 0  -1.444775e-03 9.638990e-04 -7.296467e-04   8.217369e-02 1.032625e+02 5.081931e-03 4.518205e-04 -2.138555e-04 2.571625e-02 3.011787e-08 2.865446e-08 3.067240e-08 7.092634e-04 4.391449e-02 4.935770e-04 1.000000e+00  7.957747e-04  
-3.000000e+00  -7.000000e+00  -4.000000e+00  0  1995 0  1.548434e-03 4.415491e-04 1.152490e-03   8.073134e-02 1.014500e+02 4.725584e-03 -6.988700e-05 -1.520632e-04 2.563250e-02 3.007362e-08 2.861424e-08 3.062285e-08 -2.057871e-05 4.432520e-02 3.507081e-04 1.000000e+00  7.957747e-04  
-3.000000e+00  -8.000000e+00  -3.000000e+00  0  2187 0  -5.771625e-04 -5.565509e-05 -1.301308e-03   8.051251e-02 1.011750e+02 4.814044e-03 2.417142e-04 -6.512909e-05 2.555070e-02 3.002357e-08 2.847265e-08 3.060621e-08 1.176558e-04 4.361979e-02 4.691385e-06 1.000000e+00  7.957747e-04  
-3.000000e+00  -7.000000e+00  -3.000000e+00  0  2203 0  -3.023402e-04 -1.636513e-03 -7.368964e-04   8.212892e-02 1.032062e+02 4.441884e-03 -5.145158e-05 1.331031e-06 2.546277e-02 3.013412e-08 2.830754e-08 3.090201e-08 -3.747376e-04 4.415228e-02 8.325314e-05 1.000000e+00  7.957747e-04  
-2.000000e+00  -8.000000e+00  -4.000000e+00  0  1980 0  2.515985e-03 7.140955e-04 -1.942500e-04   8.113918e-02 1.019625e+02 4.867377e-03 8.093876e-04 9.364963e-05 2.574102e-02 3.043383e-08 2.831532e-08 3.115161e-08 5.871037e-04 4.431412e-02 1.697666e-04 1.000000e+00  7.957747e-04  
-2.000000e+00  -7.000000e+00  -4.000000e+00  0  1996 0  -1.613305e-05 1.152882e-04 -1.886486e-03   7.933874e-02 9.970000e+01 4.135307e-03 2.167212e-04 3.892428e-04 2.533069e-02 2.971606e-08 2.755103e-08 3.043703e-08 2.663053e-04 4.404323e-02 3.344706e-05 1.000000e+00  7.957747e-04  
-2.000000e+00  -8.000000e+00  -3.000000e+00  0  2188 0  -3.635941e-03 -1.135896e-04 -1.524248e-04   7.869715e-02 9.889375e+01 4.747448e-03 -9.390592e-05 3.491209e-04 2.570290e-02 2.988880e-08 2.837525e-08 3.024830e-08 4.407247e-04 4.409356e-02 -9.324741e-05 1.000000e+00  7.957747e-04  
-2.000000e+00  -7.000000e+00  -3.000000e+00  0  2204 0  -1.103111e-04 -1.278392e-03 7.538666e-04   8.082584e-02 1.015687e+02 4.228802e-03 -1.050153e-04 5.314348e-04 2.498274e-02 2.874874e-08 2.759172e-08 2.892921e-08 -4.617709e-04 4.407519e-02 -1.897348e-06 1.000000e+00  7.957747e-04  
-1.000000e+00  -8.000000e+00  -4.000000e+00  0  1981 0  -7.335096e-04 -2.648897e-04 -1.265466e-03   7.843852e-02 9.856875e+01 3.081082e-03 3.329174e-04 1.628555e-04 2.516031e-02 2.975439e-08 2.602454e-08 3.120045e-08 7.016876e-04 4.339952e-02 6.229411e-04 1.000000e+00  7.957747e-04  
-1.000000e+00  -7.000000e+00  -4.000000e+00  0  1997 0  1.286431e-04 -2.149926e-03 -1.334483e-03   7.936858e-02 9.973750e+01 3.296399e-03 8.781701e-05 5.533752e-04 2.470740e-02 2.852510e-08 2.568018e-08 2.956759e-08 5.891533e-04 4.327444e-02 -5.497003e-05 1.000000e+00  7.957747e-04  
-1.000000e+00  -8.000000e+00  -3.000000e+00  0  2189 0  -1.288288e-03 -7.349416e-04 8.207245e-04   7.909006e-02 9.938750e+01 3.092932e-03 -7.388125e-04 2.237902e-04 2.547143e-02 2.991392e-08 2.879945e-08 3.001102e-08 7.333997e-04 4.320660e-02 3.444345e-04 1.000000e+00  7.957747e-04  
-1.000000e+00  -7.000000e+00  -3.000000e+00  0  2205 0  8.293559e-04 1.203542e-03 1.686800e-03   8.017928e-02 1.007562e+02 2.966322e-03 -1.521828e-04 4.620588e-04 2.464994e-02 2.820057e-08 2.740211e-08 2.811988e-08 -1.316528e-04 4.324901e-02 -1.664051e-04 1.000000e+00  7.957747e-04  
0.000000e+00  -8.000000e+00  -4.000000e+00  0  1982 0  -3.033524e-03 3.533904e-04 2.784295e-03   7.868720e-02 9.888125e+01 2.684565e-03 1.660675e-04 -4.514565e-05 2.474735e-02 2.871488e-08 2.513867e-08 3.029475e-08 5.380078e-04 4.201702e-02 9.170533e-05 1.000000e+00  7.957747e-04  
0.000000e+00  -7.000000e+00  -4.000000e+00  0  1998 0  -1.230843e-03 1.182912e-03 2.426579e-03   7.760793e-02 9.752500e+01 3.122241e-03 6.371150e-05 1.682693e-04 2.475540e-02 2.851155e-08 2.736109e-08 2.883032e-08 4.742280e-04 4.231997e-02 -4.957506e-05 1.000000e+00  7.957747e-04  
0.000000e+00  -8.000000e+00  -3.000000e+00  0  2190 0  6.042584e-03 -2.312025e-04 8.369651e-04   7.949292e-02 9.989375e+01 2.214003e-03 -3.878841e-04 -2.103651e-04 2.502664e-02 2.920565e-08 2.788731e-08 2.964226e-08 7.271646e-04 4.188520e-02 1.124261e-04 1.000000e+00  7.957747e-04  
0.000000e+00  -7.000000e+00  -3.000000e+00  0  2206 0  2.724374e-03 -2.086492e-03 -2.420157e-03   7.888117e-02 9.912500e+01 2.441317e-03 -2.582673e-04 2.121875e-04 2.479574e-02 2.869553e-08 2.861113e-08 2.849465e-08 1.826718e-04 4.194847e-02 6.610124e-06 1.000000e+00  7.957747e-04  
-1.500000e+01  -6.000000e+00  -4.000000e+00  0  340 0  -1.716325e-03 2.039400e-03 -1.639330e-03   7.498187e-02 9.422500e+01 -9.746004e-04 -4.826859e-04 -6.289149e-04 2.393310e-02 2.709274e-08 2.520663e-08 2.768951e-08 6.474917e-04 3.875986e-02 -1.479836e-04 1.000000e+00  7.957747e-04  
-1.600000e+01  -6.000000e+00  -4.000000e+00  0  339 0  1.243970e-03 -1.610787e-04 1.366507e-03   7.335053e-02 9.217500e+01 -2.576431e-03 9.377307e-04 -7.755498e-04 2.391852e-02 2.665945e-08 2.606330e-08 2.664205e-08 4.863358e-04 3.764136e-02 -2.366730e-04 1.000000e+00  7.957747e-04  
-1.500000e+01  -6.000000e+00  -3.000000e+00  0  587 0  -2.211547e-03 -1.330964e-03 -5.642697e-04   7.552399e-02 9.490625e+01 -6.002573e-04 -1.884692e-04 -3.719226e-04 2.433129e-02 2.773115e-08 2.700426e-08 2.788041e-08 -6.801351e-04 3.891704e-02 -1.199829e-04 1.000000e+00  7.957747e-04  
-1.600000e+01  -6.000000e+00  -3.000000e+00  0  586 0  -5.230667e-04 -9.457253e-05 -5.923631e-04   7.088861e-02 8.908125e+01 -2.165345e-03 6.655703e-04 -9.514017e-04 2.432468e-02 2.765076e-08 2.797481e-08 2.720564e-08 7.668855e-07 3.754798e-02 -1.493732e-05 1.000000e+00  7.957747e-04  
-1.400000e+01  -6.000000e+00  -4.000000e+00  0  341 0  3.230378e-03 -5.538751e-04 2.771286e-04   7.503161e-02 9.428750e+01 1.068165e-03 -1.068535e-03 1.160724e-04 2.450016e-02 2.848290e-08 2.700575e-08 2.906538e-08 4.106003e-04 3.921778e-02 8.412999e-05 1.000000e+00  7.957747e-04  
-1.400000e+01  -6.000000e+00  -3.000000e+00  0  588 0  1.649775e-03 1.645597e-03 -6.172983e-04   7.632972e-02 9.591875e+01 2.959179e-04 -7.209687e-04 2.496351e-04 2.479309e-02 2.893771e-08 2.794384e-08 2.920672e-08 -7.096499e-04 3.916305e-02 1.892450e-04 1.000000e+00  7.957747e-04  
-1.300000e+01  -6.000000e+00  -4.000000e+00  0  2001 0  -2.473958e-03 -3.242752e-04 4.536587e-04   7.612083e-02 9.565625e+01 1.224466e-03 -8.397125e-04 2.786303e-04 2.509799e-02 3.003337e-08 2.875920e-08 3.038874e-08 4.511283e-04 3.991993e-02 2.591984e-04 1.000000e+00  7.957747e-04  
-1.300000e+01  -6.000000e+00  -3.000000e+00  0  2209 0  -1.822759e-03 -1.429460e-03 -3.572059e-03   7.732443e-02 9.716875e+01 6.247766e-04 -2.061105e-04 2.268492e-04 2.561381e-02 3.110225e-08 2.982391e-08 3.141668e-08 -1.527136e-04 4.021458e-02 5.101808e-05 1.000000e+00  7.957747e-04  
-1.200000e+01  -6.000000e+00  -4.000000e+00  0  2002 0  7.743292e-04 9.967608e-05 7.889341e-04   7.391255e-02 9.288125e+01 1.332172e-03 -4.210058e-04 1.864168e-04 2.538825e-02 3.092198e-08 3.085314e-08 3.061644e-08 8.215534e-04 4.057137e-02 1.727882e-04 1.000000e+00  7.957747e-04  
-1.200000e+01  -6.000000e+00  -3.000000e+00  0  2210 0  -4.717014e-04 8.669801e-04 -1.200125e-03   7.808042e-02 9.811875e+01 1.740140e-03 -4.216188e-04 7.679216e-05 2.556400e-02 3.112871e-08 2.989709e-08 3.137797e-08 5.043701e-04 4.053284e-02 -2.270697e-04 1.000000e+00  7.957747e-04  
-1.100000e+01  -6.000000e+00  -4.000000e+00  0  2003 0  -2.169542e-03 9.044894e-04 -4.099031e-04   7.435520e-02 9.343750e+01 2.477946e-03 -4.871573e-04 1.990578e-04 2.506631e-02 2.983528e-08 2.998688e-08 2.954398e-08 8.747383e-04 4.209949e-02 -6.859823e-04 1.000000e+00  7.957747e-04  
-1.100000e+01  -6.000000e+00  -3.000000e+00  0  2211 0  1.224258e-04 1.762672e-03 -3.573824e-04   8.029864e-02 1.009062e+02 2.871104e-03 -8.609845e-04 7.268254e-05 2.528983e-02 3.008646e-08 3.016333e-08 2.985504e-08 4.122057e-04 4.127613e-02 -8.054944e-04 1.000000e+00  7.957747e-04  
-1.000000e+01  -6.000000e+00  -4.000000e+00  0  2004 0  8.702815e-04 -2.699644e-03 -1.930715e-03   7.970678e-02 1.001625e+02 2.738975e-03 -5.487497e-04 3.354900e-04 2.503345e-02 2.907255e-08 2.884954e-08 2.895709e-08 4.699050e-04 4.249442e-02 -2.144509e-04 1.000000e+00  7.957747e-04  
-1.000000e+01  -6.000000e+00  -3.000000e+00  0  2212 0  -1.016363e-03 3.014374e-04 1.069166e-04   8.293962e-02 1.042250e+02 3.159092e-03 2.215154e-04 7.081170e-04 2.535071e-02 2.976046e-08 3.042031e-08 2.915779e-08 -6.160891e-04 4.199851e-02 1.148771e-04 1.000000e+00  7.957747e-04  
-9.000000e+00  -6.000000e+00  -4.000000e+00  0  2005 0  -4.302873e-03 9.096089e-04 2.201900e-03   8.164151e-02 1.025938e+02 3.100188e-03 -4.248731e-04 -2.393669e-04 2.548649e-02 2.989605e-08 2.930622e-08 2.992252e-08 5.497095e-05 4.208833e-02 6.958226e-04 1.000000e+00  7.957747e-04  
-9.000000e+00  -6.000000e+00  -3.000000e+00  0  2213 0  2.588942e-03 -1.178005e-03 -2.371497e-03   8.188024e-02 1.028937e+02 3.622180e-03 6.013050e-04 9.752045e-04 2.577945e-02 3.066904e-08 2.869355e-08 3.130125e-08 -5.462281e-04 4.168682e-02 6.445963e-04 1.000000e+00  7.957747e-04  
-8.000000e+00  -6.000000e+00  -4.000000e+00  0  2006 0  1.315768e-03 -2.334150e-04 -2.416542e-03   8.000520e-02 1.005375e+02 4.319331e-03 -5.147864e-04 3.233107e-04 2.588521e-02 3.077749e-08 3.110243e-08 3.031448e-08 2.304310e-04 4.294588e-02 -1.978269e-04 1.000000e+00  7.957747e-04  
-8.000000e+00  -6.000000e+00  -3.000000e+00  0  2214 0  -2.900571e-03 7.830220e-05 -1.321565e-03   8.299433e-02 1.042938e+02 4.721123e-03 -3.326531e-04 2.595366e-04 2.646354e-02 3.227642e-08 2.993984e-08 3.298104e-08 3.244717e-04 4.264714e-02 -5.277846e-04 1.000000e+00  7.957747e-04  
-7.000000e+00  -6.000000e+00  -4.000000e+00  0  2007 0  -3.836579e-05 -2.100013e-04 1.990168e-04   8.129336e-02 1.021562e+02 4.834131e-03 -5.971354e-04 7.260523e-04 2.607547e-02 3.115499e-08 3.115960e-08 3.093698e-08 5.003204e-04 4.362537e-02 3.404110e-04 1.000000e+00  7.957747e-04  
-7.000000e+00  -6.000000e+00  -3.000000e+00  0  2215 0  -1.051681e-03 1.085452e-03 -9.376972e-04   8.316840e-02 1.045125e+02 5.158349e-03 -3.785235e-04 2.207330e-04 2.661097e-02 3.229259e-08 3.131217e-08 3.238296e-08 2.177486e-04 4.333358e-02 -2.032197e-05 1.000000e+00  7.957747e-04  
-6.000000e+00  -6.000000e+00  -4.000000e+00  0  2008 0  2.256670e-03 2.070467e-03 -1.776854e-03   8.354640e-02 1.049875e+02 4.793428e-03 -1.236639e-04 8.049832e-05 2.564751e-02 3.023795e-08 2.974772e-08 3.032639e-08 1.779443e-04 4.346138e-02 5.063921e-04 1.000000e+00  7.957747e-04  
-6.000000e+00  -6.000000e+00  -3.000000e+00  0  2216 0  3.548259e-04 -5.783377e-04 -2.514329e-03   8.559054e-02 1.075563e+02 5.250651e-03 3.605124e-04 7.698905e-04 2.569612e-02 2.987673e-08 2.955917e-08 2.974382e-08 -1.608086e-04 4.329153e-02 7.292250e-04 1.000000e+00  7.957747e-04  
-5.000000e+00  -6.000000e+00  -4.000000e+00  0  2009 0  -2.870340e-03 -3.731202e-03 -7.474636e-04   8.303909e-02 1.043500e+02 4.628611e-03 6.994088e-04 6.783714e-05 2.559021e-02 3.037963e-08 2.925735e-08 3.071337e-08 -5.031960e-04 4.343411e-02 -5.678673e-04 1.000000e+00  7.957747e-04  
-5.000000e+00  -6.000000e+00  -3.000000e+00  0  2217 0  2.119310e-03 4.156373e-03 3.360528e-03   8.881343e-02 1.116063e+02 5.197762e-03 4.749052e-04 -6.497840e-05 2.558530e-02 3.004303e-08 2.793154e-08 3.084356e-08 -3.814097e-04 4.332055e-02 3.178644e-04 1.000000e+00  7.957747e-04  
-4.000000e+00  -6.000000e+00  -4.000000e+00  0  2010 0  -3.313328e-03 -1.916218e-03 -1.900966e-03   8.081092e-02 1.015500e+02 4.908098e-03 7.210470e-04 8.374317e-05 2.568262e-02 3.050335e-08 2.841257e-08 3.135897e-08 -7.645388e-04 4.361768e-02 -4.941397e-04 1.000000e+00  7.957747e-04  
-4.000000e+00  -6.000000e+00  -3.000000e+00  0  2218 0  8.122632e-03 7.270557e-05 -1.133092e-03   8.375032e-02 1.052438e+02 4.406612e-03 3.233327e-04 -4.914690e-04 2.584233e-02 3.118247e-08 2.756515e-08 3.282449e-08 -1.536190e-04 4.395269e-02 -4.654422e-04 1.000000e+00  7.957747e-04  
-3.000000e+00  -6.000000e+00  -4.000000e+00  0  2011 0  2.320237e-03 6.043774e-04 -2.777736e-03   8.157686e-02 1.025125e+02 4.891036e-03 -2.295106e-04 1.184583e-04 2.585947e-02 3.065310e-08 2.883318e-08 3.139547e-08 -2.247282e-04 4.402682e-02 -1.806925e-04 1.000000e+00  7.957747e-04  
-3.000000e+00  -6.000000e+00  -3.000000e+00  0  2219 0  -1.037521e-04 7.952718e-04 2.489929e-04   8.196480e-02 1.030000e+02 4.339966e-03 -2.563040e-04 7.681292e-05 2.574327e-02 3.076964e-08 2.891659e-08 3.149336e-08 1.544606e-04 4.433232e-02 -1.211143e-04 1.000000e+00  7.957747e-04  
-2.000000e+00  -6.000000e+00  -4.000000e+00  0  2012 0  -9.164055e-04 2.751876e-04 -2.165451e-03   8.040309e-02 1.010375e+02 4.131393e-03 -1.024815e-04 4.055500e-04 2.583179e-02 3.076367e-08 2.882403e-08 3.153495e-08 3.251834e-04 4.355113e-02 3.141647e-05 1.000000e+00  7.957747e-04  
-2.000000e+00  -6.000000e+00  -3.000000e+00  0  2220 0  9.614175e-04 1.231180e-03 4.766133e-05   8.491414e-02 1.067062e+02 4.048591e-03 -6.117788e-06 -1.176865e-04 2.562611e-02 3.028503e-08 2.859969e-08 3.087242e-08 -3.618837e-05 4.400077e-02 4.003756e-04 1.000000e+00  7.957747e-04  
-1.000000e+00  -6.000000e+00  -4.000000e+00  0  2013 0  -2.498249e-03 -8.686042e-04 -1.348906e-03   7.665300e-02 9.632500e+01 3.612117e-03 5.782217e-04 1.995145e-04 2.527519e-02 2.966463e-08 2.718748e-08 3.066541e-08 3.426863e-04 4.284315e-02 9.053608e-05 1.000000e+00  7.957747e-04  
-1.000000e+00  -6.000000e+00  -3.000000e+00  0  2221 0  -4.864534e-04 -4.807565e-04 2.748820e-03   8.012457e-02 1.006875e+02 3.006186e-03 3.559818e-04 -1.048174e-04 2.495476e-02 2.903975e-08 2.623962e-08 3.021007e-08 6.723062e-05 4.323151e-02 1.097764e-04 1.000000e+00  7.957747e-04  
0.000000e+00  -6.000000e+00  -4.000000e+00  0  2014 0  -2.037584e-03 2.276535e-03 2.644669e-03   7.535489e-02 9.469375e+01 2.986686e-03 7.955754e-04 -4.995432e-04 2.484871e-02 2.865315e-08 2.905948e-08 2.810958e-08 3.877615e-04 4.225630e-02 1.406817e-04 1.000000e+00  7.957747e-04  
0.000000e+00  -6.000000e+00  -3.000000e+00  0  2222 0  2.159417e-03 -1.538105e-03 -9.769070e-04   7.670771e-02 9.639375e+01 2.536506e-03 1.111637e-04 -1.236570e-04 2.444022e-02 2.794984e-08 2.691715e-08 2.822600e-08 2.523204e-04 4.228636e-02 -7.831235e-05 1.000000e+00  7.957747e-04  
-1.500000e+01  -5.000000e+00  -4.000000e+00  0  359 0  -1.244079e-03 -2.341087e-04 -2.352772e-04   7.158988e-02 8.996250e+01 -1.456965e-03 -1.250014e-04 -4.909372e-04 2.426858e-02 2.766779e-08 2.578375e-08 2.815985e-08 -3.846314e-05 3.862676e-02 -4.804838e-05 1.000000e+00  7.957747e-04  