VARIABLES="X", "Y", "Z", "Maximum Refinment Level", "Temp_ID", "Thread","Ex (corner node)","Ey (corner node)","Ez (corner node)", "Number Density[1/m^3]", "Particle Number", "Vx [m/s]", "Vy [m/s]", "Vz [m/s]", "|V| [m/s]", "Translational Temperature [K]", "Parallel Translational Temperature [K]", "Tangential Translational Temperature [K]","Bx (center node)","By (center node)","Bz (center node)", "Local Time Step" , "log10(Local Particle Weight)" 
ZONE N=5049, E=4096, DATAPACKING=POINT, ZONETYPE=FEBRICK
-1.600000e+01  -8.000000e+00  -4.000000e+00  0  1004 0  -3.485779e-03 -1.237786e-04 -1.492566e-03   6.934182e-02 8.713750e+01 -2.560178e-03 3.625071e-04 -4.749523e-05 2.423521e-02 2.740603e-08 2.754274e-08 2.712941e-08 3.691761e-04 3.762249e-02 -3.675614e-04 1.000000e+00  7.957747e-04  
-1.500000e+01  -8.000000e+00  -4.000000e+00  0  1005 0  -9.885676e-04 1.624281e-03 7.738634e-04   7.051559e-02 8.861250e+01 -2.245127e-03 -3.317293e-04 1.759684e-04 2.460470e-02 2.813967e-08 2.891399e-08 2.753804e-08 3.796313e-04 3.858492e-02 -2.657223e-04 1.000000e+00  7.957747e-04  
-1.500000e+01  -7.000000e+00  -4.000000e+00  0  1024 0  -1.951923e-03 1.742624e-03 4.556940e-04   7.312672e-02 9.189375e+01 -2.321859e-03 -7.121208e-05 -9.781882e-05 2.468164e-02 2.861095e-08 2.892469e-08 2.828673e-08 9.180291e-05 3.839526e-02 -5.354563e-04 1.000000e+00  7.957747e-04  
-1.600000e+01  -7.000000e+00  -4.000000e+00  0  1023 0  -5.946969e-04 -6.373127e-04 1.555675e-03   6.829736e-02 8.582500e+01 -2.266799e-03 8.223905e-04 -2.998947e-04 2.448406e-02 2.815296e-08 2.771925e-08 2.809438e-08 3.887959e-05 3.776701e-02 -4.770851e-04 1.000000e+00  7.957747e-04  
-1.600000e+01  -8.000000e+00  -3.000000e+00  0  1213 0  4.147104e-03 1.846134e-03 2.758549e-04   6.934679e-02 8.714375e+01 -2.652234e-03 -2.779265e-04 4.240269e-04 2.439076e-02 2.803248e-08 2.768710e-08 2.792338e-08 2.203345e-04 3.773462e-02 -4.526690e-04 1.000000e+00  7.957747e-04  
-1.500000e+01  -8.000000e+00  -3.000000e+00  0  1214 0  1.297899e-03 -8.179746e-04 -1.232412e-03   7.181369e-02 9.024375e+01 -2.250923e-03 -4.913989e-04 7.648485e-04 2.478530e-02 2.886401e-08 3.052964e-08 2.773837e-08 5.931791e-04 3.830438e-02 -2.889284e-04 1.000000e+00  7.957747e-04  
-1.500000e+01  -7.000000e+00  -3.000000e+00  0  1233 0  3.983147e-04 -1.095446e-03 -9.291871e-04   7.440494e-02 9.350000e+01 -1.887903e-03 2.683300e-04 8.928876e-04 2.455746e-02 2.831860e-08 2.914143e-08 2.763610e-08 2.645083e-04 3.797646e-02 -5.493138e-04 1.000000e+00  7.957747e-04  
-1.600000e+01  -7.000000e+00  -3.000000e+00  0  1232 0  2.286293e-04 8.651827e-04 -7.408998e-04   6.825758e-02 8.577500e+01 -2.316191e-03 4.140206e-04 7.216509e-04 2.445859e-02 2.813673e-08 2.818948e-08 2.777662e-08 1.251151e-04 3.738098e-02 -2.038357e-04 1.000000e+00  7.957747e-04  
-1.400000e+01  -8.000000e+00  -4.000000e+00  0  1006 0  1.629398e-03 1.348318e-03 -1.081548e-03   7.001823e-02 8.798750e+01 -1.119587e-03 5.182056e-05 -4.459310e-04 2.452157e-02 2.825109e-08 2.797324e-08 2.812108e-08 4.864484e-04 4.014830e-02 3.047436e-04 1.000000e+00  7.957747e-04  
-1.400000e+01  -7.000000e+00  -4.000000e+00  0  1025 0  1.632828e-03 1.429916e-04 2.377542e-03   7.462377e-02 9.377500e+01 -1.510520e-03 3.846961e-04 9.472224e-05 2.464669e-02 2.847486e-08 2.776463e-08 2.859725e-08 3.194215e-04 3.924331e-02 -3.725157e-04 1.000000e+00  7.957747e-04  
-1.400000e+01  -8.000000e+00  -3.000000e+00  0  1215 0  -6.418080e-04 -2.257108e-03 9.419821e-04   7.585225e-02 9.531875e+01 -1.044356e-03 1.595785e-05 -1.447277e-04 2.472708e-02 2.878051e-08 2.870269e-08 2.853410e-08 9.557325e-04 3.955980e-02 6.803663e-04 1.000000e+00  7.957747e-04  
-1.400000e+01  -7.000000e+00  -3.000000e+00  0  1234 0  -8.532563e-04 2.644551e-04 -8.653062e-04   7.785661e-02 9.783750e+01 -1.428846e-03 3.011090e-04 3.926678e-04 2.428868e-02 2.777154e-08 2.704540e-08 2.788732e-08 4.129493e-04 3.931756e-02 1.083117e-04 1.000000e+00  7.957747e-04  
-1.300000e+01  -8.000000e+00  -4.000000e+00  0  2295 0  -9.292156e-04 3.394984e-04 -1.929055e-03   7.154015e-02 8.990000e+01 2.606327e-04 7.276959e-04 -1.456879e-04 2.427896e-02 2.812887e-08 2.769653e-08 2.798955e-08 1.493994e-04 4.075283e-02 8.169006e-04 1.000000e+00  7.957747e-04  
-1.300000e+01  -7.000000e+00  -4.000000e+00  0  2311 0  -2.147168e-03 -5.537920e-04 -1.831608e-03   7.611088e-02 9.564375e+01 -1.248565e-04 2.429476e-04 3.409140e-04 2.429989e-02 2.805646e-08 2.694839e-08 2.825778e-08 4.296741e-04 4.055373e-02 -3.966825e-04 1.000000e+00  7.957747e-04  
-1.300000e+01  -8.000000e+00  -3.000000e+00  0  2471 0  2.286603e-03 6.005413e-04 -1.579872e-04   7.511119e-02 9.438750e+01 2.832195e-04 9.703108e-05 -4.497156e-04 2.469282e-02 2.902655e-08 2.889927e-08 2.879678e-08 8.338593e-04 4.006880e-02 8.649536e-04 1.000000e+00  7.957747e-04  
-1.300000e+01  -7.000000e+00  -3.000000e+00  0  2487 0  1.354287e-03 -4.384342e-04 2.301993e-03   7.712549e-02 9.691875e+01 2.624680e-05 1.193827e-05 1.406611e-04 2.432075e-02 2.819787e-08 2.716886e-08 2.837018e-08 -2.044439e-05 4.057803e-02 3.179739e-04 1.000000e+00  7.957747e-04  
-1.200000e+01  -8.000000e+00  -4.000000e+00  0  2296 0  -3.800145e-04 3.622336e-04 -1.347290e-04   7.316154e-02 9.193750e+01 1.399556e-03 5.877348e-04 -3.952156e-04 2.498602e-02 2.963468e-08 2.928631e-08 2.948796e-08 -4.650531e-04 4.062082e-02 8.209229e-04 1.000000e+00  7.957747e-04  
-1.200000e+01  -7.000000e+00  -4.000000e+00  0  2312 0  1.444737e-03 -3.414061e-04 -7.308977e-05   7.825947e-02 9.834375e+01 8.061283e-04 1.962938e-04 -2.855602e-04 2.494049e-02 2.964395e-08 2.921151e-08 2.951484e-08 2.765645e-04 4.074271e-02 -1.050247e-04 1.000000e+00  7.957747e-04  
-1.200000e+01  -8.000000e+00  -3.000000e+00  0  2472 0  -5.166503e-04 1.398660e-04 -4.779749e-04   7.548421e-02 9.485625e+01 1.751742e-03 -5.674045e-04 1.340013e-04 2.538463e-02 3.049019e-08 3.020060e-08 3.038825e-08 4.842364e-04 4.083461e-02 7.212352e-04 1.000000e+00  7.957747e-04  
-1.200000e+01  -7.000000e+00  -3.000000e+00  0  2488 0  -1.701958e-03 -1.063567e-03 -1.656301e-03   7.818984e-02 9.825625e+01 1.521013e-03 -4.714433e-04 1.825542e-04 2.517170e-02 3.003516e-08 2.939696e-08 3.013245e-08 -2.925500e-04 4.123700e-02 -2.131703e-04 1.000000e+00  7.957747e-04  
-1.100000e+01  -8.000000e+00  -4.000000e+00  0  2297 0  1.552473e-03 -5.419778e-04 -1.090368e-03   7.488240e-02 9.410000e+01 2.398306e-03 -5.592416e-05 -1.132165e-03 2.567546e-02 3.096695e-08 3.095216e-08 3.067679e-08 -4.496603e-04 4.120414e-02 -2.139160e-04 1.000000e+00  7.957747e-04  
-1.100000e+01  -7.000000e+00  -4.000000e+00  0  2313 0  -4.852605e-05 -6.586603e-04 5.798111e-04   7.702105e-02 9.678750e+01 2.156663e-03 5.758835e-04 -1.146909e-03 2.551441e-02 3.051396e-08 3.088912e-08 2.982056e-08 2.486770e-04 4.100934e-02 4.806383e-05 1.000000e+00  7.957747e-04  
-1.100000e+01  -8.000000e+00  -3.000000e+00  0  2473 0  -1.455669e-03 -7.946387e-05 -2.946158e-04   7.781185e-02 9.778125e+01 2.733677e-03 -2.150782e-04 1.912037e-04 2.576261e-02 3.101996e-08 3.064145e-08 3.100816e-08 3.238447e-04 4.154901e-02 -6.751553e-05 1.000000e+00  7.957747e-04  
-1.100000e+01  -7.000000e+00  -3.000000e+00  0  2489 0  7.255007e-04 1.360276e-03 -1.247590e-03   7.779195e-02 9.775625e+01 2.491067e-03 3.216052e-04 -2.511719e-04 2.573785e-02 3.105348e-08 3.020147e-08 3.104741e-08 7.736454e-05 4.118876e-02 -5.676055e-05 1.000000e+00  7.957747e-04  
-1.000000e+01  -8.000000e+00  -4.000000e+00  0  2298 0  -3.053411e-03 1.396034e-05 -4.849126e-05   7.774222e-02 9.769375e+01 2.970304e-03 -1.209074e-04 -3.735821e-04 2.588511e-02 3.152293e-08 3.273171e-08 3.063799e-08 -9.091492e-05 4.221910e-02 -4.263161e-04 1.000000e+00  7.957747e-04  
-1.000000e+01  -7.000000e+00  -4.000000e+00  0  2314 0  -1.071836e-03 -2.259135e-04 7.696817e-04   7.917461e-02 9.949375e+01 3.739365e-03 4.152950e-04 -8.987015e-05 2.554235e-02 3.011466e-08 3.112494e-08 2.910508e-08 2.140536e-04 4.206428e-02 6.360514e-05 1.000000e+00  7.957747e-04  
-1.000000e+01  -8.000000e+00  -3.000000e+00  0  2474 0  2.212311e-03 9.732934e-04 8.812359e-04   7.821968e-02 9.829375e+01 3.279374e-03 8.125892e-04 -1.545212e-04 2.597145e-02 3.127066e-08 3.186099e-08 3.081104e-08 6.253481e-04 4.241326e-02 -2.933546e-04 1.000000e+00  7.957747e-04  
-1.000000e+01  -7.000000e+00  -3.000000e+00  0  2490 0  9.984463e-05 -9.425430e-04 -2.907479e-05   8.091039e-02 1.016750e+02 3.284554e-03 1.303370e-03 -1.014865e-04 2.589205e-02 3.085927e-08 3.137670e-08 3.025646e-08 3.020090e-04 4.204340e-02 1.185309e-04 1.000000e+00  7.957747e-04  
-9.000000e+00  -8.000000e+00  -4.000000e+00  0  2299 0  -2.163561e-03 -6.044746e-04 -1.965922e-03   7.742888e-02 9.730000e+01 3.016818e-03 1.181981e-04 -4.979135e-05 2.589600e-02 3.145094e-08 3.205338e-08 3.092143e-08 -2.461740e-05 4.248762e-02 -2.798838e-04 1.000000e+00  7.957747e-04  
-9.000000e+00  -7.000000e+00  -4.000000e+00  0  2315 0  4.226657e-04 9.661547e-04 -3.067499e-03   7.852307e-02 9.867500e+01 3.931236e-03 7.181908e-05 2.157146e-04 2.555785e-02 3.039155e-08 3.150317e-08 2.962728e-08 -4.960534e-06 4.248593e-02 4.081049e-04 1.000000e+00  7.957747e-04  
-9.000000e+00  -8.000000e+00  -3.000000e+00  0  2475 0  1.083184e-03 7.932403e-04 1.713214e-03   7.968192e-02 1.001312e+02 3.645857e-03 3.724116e-04 -3.975063e-04 2.605235e-02 3.149750e-08 3.190940e-08 3.114371e-08 6.195814e-04 4.293701e-02 -9.786350e-05 1.000000e+00  7.957747e-04  
-9.000000e+00  -7.000000e+00  -3.000000e+00  0  2491 0  -8.162445e-04 1.932757e-04 5.880730e-04   8.187030e-02 1.028812e+02 3.535587e-03 6.141740e-04 6.993566e-05 2.567145e-02 3.047616e-08 3.158355e-08 2.970452e-08 3.014172e-04 4.314118e-02 5.194805e-04 1.000000e+00  7.957747e-04  
-8.000000e+00  -8.000000e+00  -4.000000e+00  0  2300 0  1.944850e-03 8.699291e-04 1.862771e-03   7.795608e-02 9.796250e+01 3.788305e-03 -3.414898e-04 -7.814268e-05 2.576331e-02 3.081497e-08 2.947691e-08 3.114656e-08 1.583367e-04 4.248693e-02 -1.915499e-04 1.000000e+00  7.957747e-04  
-8.000000e+00  -7.000000e+00  -4.000000e+00  0  2316 0  1.320052e-03 6.256177e-04 -2.892728e-04   7.758803e-02 9.750000e+01 4.105633e-03 -1.748662e-04 -1.889375e-04 2.545127e-02 3.040873e-08 2.970379e-08 3.049010e-08 -1.177238e-04 4.192153e-02 4.923798e-04 1.000000e+00  7.957747e-04  
-8.000000e+00  -8.000000e+00  -3.000000e+00  0  2476 0  -2.505229e-03 4.148587e-04 1.075128e-03   7.977144e-02 1.002438e+02 3.785845e-03 -6.452788e-04 4.178145e-04 2.574986e-02 3.105784e-08 3.015679e-08 3.132406e-08 1.093371e-04 4.301759e-02 1.443262e-04 1.000000e+00  7.957747e-04  
-8.000000e+00  -7.000000e+00  -3.000000e+00  0  2492 0  -3.665169e-04 -1.440371e-03 -2.025129e-03   7.995049e-02 1.004688e+02 4.150523e-03 1.069776e-04 1.574916e-04 2.516394e-02 2.983977e-08 2.979622e-08 2.965684e-08 2.147862e-04 4.306659e-02 7.037099e-04 1.000000e+00  7.957747e-04  
-7.000000e+00  -8.000000e+00  -4.000000e+00  0  2301 0  -1.249051e-03 5.382208e-04 5.246633e-05   8.125855e-02 1.021125e+02 4.687304e-03 -4.078913e-04 -2.138021e-05 2.616911e-02 3.139602e-08 2.959432e-08 3.205600e-08 2.067861e-04 4.278596e-02 -1.300547e-05 1.000000e+00  7.957747e-04  
-7.000000e+00  -7.000000e+00  -4.000000e+00  0  2317 0  -3.802225e-05 2.783980e-04 -9.599303e-04   8.176585e-02 1.027500e+02 5.107428e-03 8.338492e-05 5.917217e-05 2.580685e-02 3.056947e-08 2.806029e-08 3.155890e-08 -7.068492e-05 4.245612e-02 5.896238e-04 1.000000e+00  7.957747e-04  
-7.000000e+00  -8.000000e+00  -3.000000e+00  0  2477 0  2.590793e-03 -7.652413e-04 8.363442e-04   7.989081e-02 1.003937e+02 4.399790e-03 -7.500727e-04 2.435878e-04 2.609328e-02 3.149973e-08 3.002240e-08 3.197703e-08 -2.194459e-04 4.266764e-02 7.622480e-04 1.000000e+00  7.957747e-04  
-7.000000e+00  -7.000000e+00  -3.000000e+00  0  2493 0  2.255009e-04 -1.426972e-03 5.463199e-04   8.302417e-02 1.043312e+02 4.572678e-03 8.227268e-05 2.077948e-04 2.559901e-02 3.063634e-08 2.847886e-08 3.150723e-08 1.147236e-05 4.309609e-02 1.215490e-04 1.000000e+00  7.957747e-04  
-6.000000e+00  -8.000000e+00  -4.000000e+00  0  2302 0  1.851722e-03 -1.467709e-03 -1.067586e-03   8.045780e-02 1.011063e+02 5.096035e-03 -6.209442e-05 9.271112e-05 2.634702e-02 3.164408e-08 3.068415e-08 3.190663e-08 -2.777228e-04 4.340759e-02 4.852323e-04 1.000000e+00  7.957747e-04  
-6.000000e+00  -7.000000e+00  -4.000000e+00  0  2318 0  2.321122e-04 1.536793e-04 6.550094e-04   8.330269e-02 1.046813e+02 5.330455e-03 5.017477e-04 2.127771e-04 2.564658e-02 2.999623e-08 2.826695e-08 3.072457e-08 -1.559643e-04 4.345552e-02 4.674593e-04 1.000000e+00  7.957747e-04  
-6.000000e+00  -8.000000e+00  -3.000000e+00  0  2478 0  -7.573148e-04 1.418922e-03 -3.664784e-04   8.141770e-02 1.023125e+02 5.267167e-03 9.896601e-06 4.162823e-05 2.643962e-02 3.177458e-08 3.064123e-08 3.209681e-08 -2.034412e-04 4.297758e-02 6.270411e-04 1.000000e+00  7.957747e-04  
-6.000000e+00  -7.000000e+00  -3.000000e+00  0  2494 0  1.081638e-03 -8.863472e-04 -1.231881e-03   8.432725e-02 1.059688e+02 4.630324e-03 3.577873e-04 4.000368e-04 2.613845e-02 3.145955e-08 2.850277e-08 3.275964e-08 -2.911153e-04 4.358968e-02 1.162023e-04 1.000000e+00  7.957747e-04  
-5.000000e+00  -8.000000e+00  -4.000000e+00  0  2303 0  -2.876622e-04 1.288140e-03 6.401565e-04   7.918953e-02 9.951250e+01 5.036337e-03 -2.257068e-04 4.152477e-04 2.627579e-02 3.154476e-08 3.031025e-08 3.196779e-08 -2.444339e-04 4.351599e-02 1.400285e-04 1.000000e+00  7.957747e-04  
-5.000000e+00  -7.000000e+00  -4.000000e+00  0  2319 0  -2.998634e-04 1.889805e-03 -1.625289e-03   7.952774e-02 9.993750e+01 5.405924e-03 3.078388e-04 -6.781073e-05 2.590087e-02 3.058796e-08 2.879425e-08 3.133978e-08 -3.705981e-04 4.360413e-02 -2.256059e-04 1.000000e+00  7.957747e-04  
-5.000000e+00  -8.000000e+00  -3.000000e+00  0  2479 0  9.196347e-04 -1.771222e-03 -2.058620e-03   8.147738e-02 1.023875e+02 4.875735e-03 3.703618e-04 3.376156e-04 2.591465e-02 3.074191e-08 2.847304e-08 3.169683e-08 -1.184866e-04 4.434403e-02 -2.515312e-04 1.000000e+00  7.957747e-04  
-5.000000e+00  -7.000000e+00  -3.000000e+00  0  2495 0  -1.117265e-04 8.339553e-04 3.980870e-04   8.095516e-02 1.017313e+02 5.059717e-03 5.031012e-04 3.279606e-04 2.608682e-02 3.099431e-08 2.814645e-08 3.226105e-08 -6.184461e-04 4.460219e-02 -2.071924e-04 1.000000e+00  7.957747e-04  
-4.000000e+00  -8.000000e+00  -4.000000e+00  0  2304 0  -2.343509e-03 1.644772e-03 -1.105311e-03   7.911990e-02 9.942500e+01 4.696066e-03 -1.235441e-04 -1.802272e-04 2.558288e-02 3.022967e-08 2.711240e-08 3.157560e-08 -1.089628e-04 4.367873e-02 -8.863732e-04 1.000000e+00  7.957747e-04  
-4.000000e+00  -7.000000e+00  -4.000000e+00  0  2320 0  -1.696391e-03 -2.087607e-03 -5.249997e-04   7.890106e-02 9.915000e+01 5.196776e-03 6.486738e-05 -9.691594e-05 2.565417e-02 3.017604e-08 2.697036e-08 3.163035e-08 -5.232467e-04 4.379936e-02 -6.125702e-04 1.000000e+00  7.957747e-04  
-4.000000e+00  -8.000000e+00  -3.000000e+00  0  2480 0  9.530754e-04 2.124506e-04 1.412803e-03   7.913482e-02 9.944375e+01 4.862867e-03 1.561556e-05 -1.523175e-04 2.550847e-02 3.004520e-08 2.685501e-08 3.150390e-08 -3.799564e-04 4.475705e-02 -4.726126e-04 1.000000e+00  7.957747e-04  
-4.000000e+00  -7.000000e+00  -3.000000e+00  0  2496 0  3.307742e-03 -5.679046e-05 -9.438828e-04   8.121876e-02 1.020625e+02 5.128246e-03 3.373861e-04 -4.517420e-05 2.548142e-02 2.983369e-08 2.778954e-08 3.073092e-08 -7.636356e-04 4.443496e-02 -3.741736e-04 1.000000e+00  7.957747e-04  
-3.000000e+00  -8.000000e+00  -4.000000e+00  0  2305 0  -1.928318e-03 -1.300976e-04 3.224758e-03   8.018922e-02 1.007687e+02 4.013395e-03 -2.738594e-04 -7.825845e-04 2.559736e-02 3.052657e-08 2.673324e-08 3.216969e-08 -3.299404e-04 4.344637e-02 -6.096205e-04 1.000000e+00  7.957747e-04  
-3.000000e+00  -7.000000e+00  -4.000000e+00  0  2321 0  3.569149e-03 -6.539890e-04 9.973618e-04   8.053737e-02 1.012062e+02 4.779308e-03 -4.656789e-06 2.083670e-04 2.533240e-02 2.956650e-08 2.630978e-08 3.108560e-08 -2.305806e-04 4.306752e-02 -2.225772e-04 1.000000e+00  7.957747e-04  
-3.000000e+00  -8.000000e+00  -3.000000e+00  0  2481 0  -9.646859e-04 -9.476545e-04 -3.322601e-03   7.930890e-02 9.966250e+01 4.585836e-03 -7.618623e-04 -7.410779e-04 2.590262e-02 3.118413e-08 2.831960e-08 3.232462e-08 -5.747065e-04 4.418656e-02 -7.565543e-05 1.000000e+00  7.957747e-04  
-3.000000e+00  -7.000000e+00  -3.000000e+00  0  2497 0  1.217321e-04 2.144823e-04 -2.013331e-03   8.223337e-02 1.033375e+02 4.997728e-03 1.448983e-04 2.434007e-04 2.564094e-02 3.038658e-08 2.820126e-08 3.127468e-08 -4.929858e-04 4.323617e-02 -2.558067e-05 1.000000e+00  7.957747e-04  
-2.000000e+00  -8.000000e+00  -4.000000e+00  0  2306 0  1.447641e-03 -8.062164e-04 -8.224484e-04   7.914477e-02 9.945625e+01 3.641280e-03 -3.683404e-04 -6.679518e-04 2.566887e-02 3.059372e-08 2.817415e-08 3.164645e-08 -1.488737e-04 4.328582e-02 -2.761805e-04 1.000000e+00  7.957747e-04  
-2.000000e+00  -7.000000e+00  -4.000000e+00  0  2322 0  3.993302e-03 -8.330986e-04 3.802897e-04   7.902540e-02 9.930625e+01 4.536593e-03 -4.965070e-05 1.240693e-05 2.550556e-02 2.977097e-08 2.754124e-08 3.076801e-08 4.437323e-04 4.290451e-02 3.508287e-04 1.000000e+00  7.957747e-04  
-2.000000e+00  -8.000000e+00  -3.000000e+00  0  2482 0  -8.090285e-04 1.016106e-03 -9.137588e-04   7.872201e-02 9.892500e+01 4.012224e-03 -8.120193e-04 -6.310178e-04 2.549691e-02 3.009075e-08 2.738501e-08 3.114218e-08 -4.746328e-04 4.375982e-02 -3.484947e-05 1.000000e+00  7.957747e-04  
-2.000000e+00  -7.000000e+00  -3.000000e+00  0  2498 0  -3.111686e-03 -6.474704e-04 -4.065991e-04   8.130331e-02 1.021688e+02 5.024625e-03 -2.610136e-04 2.202397e-04 2.560848e-02 2.993937e-08 2.633723e-08 3.153976e-08 6.810043e-05 4.329782e-02 3.455016e-05 1.000000e+00  7.957747e-04  
-1.000000e+00  -8.000000e+00  -4.000000e+00  0  2307 0  -1.056640e-04 -6.976316e-04 -6.811658e-04   7.847831e-02 9.861875e+01 3.533234e-03 1.704156e-05 -1.728592e-04 2.483782e-02 2.870649e-08 2.656204e-08 2.962708e-08 2.380239e-04 4.290791e-02 -6.491256e-05 1.000000e+00  7.957747e-04  
-1.000000e+00  -7.000000e+00  -4.000000e+00  0  2323 0  5.959990e-04 -5.268212e-04 1.480968e-03   8.003504e-02 1.005750e+02 3.556609e-03 -1.028035e-04 2.532230e-04 2.498103e-02 2.872250e-08 2.725951e-08 2.928398e-08 4.308818e-04 4.335724e-02 6.086254e-04 1.000000e+00  7.957747e-04  
-1.000000e+00  -8.000000e+00  -3.000000e+00  0  2483 0  1.372817e-03 4.360997e-04 1.308541e-03   7.701607e-02 9.678125e+01 3.142653e-03 -3.925423e-04 -2.721010e-04 2.465108e-02 2.828688e-08 2.551917e-08 2.943969e-08 6.880217e-05 4.299986e-02 -3.041192e-04 1.000000e+00  7.957747e-04  
-1.000000e+00  -7.000000e+00  -3.000000e+00  0  2499 0  -8.638705e-04 8.361254e-04 8.150664e-04   8.365582e-02 1.051250e+02 3.565718e-03 -1.988952e-04 1.495985e-04 2.487043e-02 2.874122e-08 2.613510e-08 2.985465e-08 3.546653e-04 4.299772e-02 1.148563e-04 1.000000e+00  7.957747e-04  
0.000000e+00  -8.000000e+00  -4.000000e+00  0  2308 0  -7.708726e-04 -2.507806e-05 -2.015619e-03   7.880656e-02 9.903125e+01 2.846973e-03 2.314393e-04 -2.031557e-04 2.445770e-02 2.799780e-08 2.618587e-08 2.874058e-08 1.726035e-04 4.222196e-02 -7.565210e-05 1.000000e+00  7.957747e-04  
0.000000e+00  -7.000000e+00  -4.000000e+00  0  2324 0  -9.051173e-04 -1.447866e-03 1.950548e-04   7.686686e-02 9.659375e+01 2.697986e-03 -3.885248e-04 -1.700428e-04 2.454046e-02 2.787665e-08 2.731756e-08 2.792767e-08 2.176294e-04 4.274399e-02 4.330316e-04 1.000000e+00  7.957747e-04  
0.000000e+00  -8.000000e+00  -3.000000e+00  0  2484 0  1.574225e-03 -9.893798e-04 -9.966682e-04   7.636453e-02 9.596250e+01 1.866093e-03 -1.232777e-04 -3.623750e-04 2.450165e-02 2.842789e-08 2.665727e-08 2.919712e-08 3.677989e-04 4.161237e-02 2.108324e-04 1.000000e+00  7.957747e-04  
0.000000e+00  -7.000000e+00  -3.000000e+00  0  2500 0  2.619882e-03 -1.042082e-03 -1.550832e-03   8.026383e-02 1.008625e+02 2.016620e-03 -6.508193e-04 -1.343948e-04 2.464198e-02 2.862942e-08 2.822954e-08 2.867748e-08 3.996850e-04 4.176380e-02 -3.064769e-04 1.000000e+00  7.957747e-04  
-1.500000e+01  -6.000000e+00  -4.000000e+00  0  1043 0  8.274348e-04 1.393040e-03 2.100875e-03   7.304217e-02 9.178750e+01 -1.376126e-03 4.955594e-04 -8.091041e-05 2.446310e-02 2.826729e-08 2.841901e-08 2.801494e-08 7.918536e-05 3.851443e-02 1.686118e-04 1.000000e+00  7.957747e-04  
-1.600000e+01  -6.000000e+00  -4.000000e+00  0  1042 0  1.243904e-04 1.410933e-03 -2.619484e-04   6.844657e-02 8.601250e+01 -2.341050e-03 1.120841e-03 -3.976208e-04 2.426471e-02 2.763147e-08 2.788742e-08 2.725336e-08 1.554958e-04 3.788049e-02 5.115339e-04 1.000000e+00  7.957747e-04  
-1.500000e+01  -6.000000e+00  -3.000000e+00  0  1252 0  7.475709e-04 1.094898e-04 8.347945e-04   7.373350e-02 9.265625e+01 -1.112449e-03 3.280900e-04 5.460875e-04 2.380547e-02 2.681323e-08 2.664409e-08 2.673685e-08 -4.120891e-04 3.838002e-02 -4.312037e-04 1.000000e+00  7.957747e-04  
-1.600000e+01  -6.000000e+00  -3.000000e+00  0  1251 0  1.246336e-03 1.820103e-04 -2.503113e-04   6.760106e-02 8.495000e+01 -2.535982e-03 7.686566e-04 2.617852e-04 2.377587e-02 2.665816e-08 2.639740e-08 2.655999e-08 -1.790153e-04 3.763352e-02 8.028159e-05 1.000000e+00  7.957747e-04  
-1.400000e+01  -6.000000e+00  -4.000000e+00  0  1044 0  1.814335e-03 -6.057484e-04 -1.356175e-03   7.522558e-02 9.453125e+01 -5.948660e-04 2.267862e-04 5.358880e-04 2.464555e-02 2.860002e-08 2.854928e-08 2.846814e-08 -2.850404e-06 3.897845e-02 -3.893467e-04 1.000000e+00  7.957747e-04  
-1.400000e+01  -6.000000e+00  -3.000000e+00  0  1253 0  -4.672619e-04 9.066066e-04 9.036888e-05   7.789640e-02 9.788750e+01 -4.152406e-04 -4.036783e-04 5.571961e-04 2.405416e-02 2.748420e-08 2.796784e-08 2.704902e-08 -6.184767e-04 3.935191e-02 -6.363570e-04 1.000000e+00  7.957747e-04  
-1.300000e+01  -6.000000e+00  -4.000000e+00  0  2327 0  7.529448e-04 -2.515782e-03 -2.645553e-03   7.524050e-02 9.455000e+01 2.303077e-04 -5.281982e-05 6.309259e-04 2.467152e-02 2.862142e-08 2.806338e-08 2.866340e-08 -8.482390e-05 4.028804e-02 -1.126529e-04 1.000000e+00  7.957747e-04  
-1.300000e+01  -6.000000e+00  -3.000000e+00  0  2503 0  -2.376891e-03 1.000277e-03 1.133288e-04   7.672263e-02 9.641250e+01 -1.187748e-04 -2.174147e-04 -1.178064e-05 2.417299e-02 2.782894e-08 2.766860e-08 2.771153e-08 -5.477114e-04 4.057490e-02 -2.274562e-04 1.000000e+00  7.957747e-04  
-1.200000e+01  -6.000000e+00  -4.000000e+00  0  2328 0  5.197640e-04 -1.006935e-03 -1.110479e-03   7.568812e-02 9.511250e+01 9.676497e-04 3.048939e-04 2.613549e-05 2.485003e-02 2.908832e-08 2.901539e-08 2.888334e-08 3.657733e-04 4.080268e-02 -9.867420e-05 1.000000e+00  7.957747e-04  
-1.200000e+01  -6.000000e+00  -3.000000e+00  0  2504 0  -1.935190e-03 8.788208e-04 -2.064022e-03   7.671268e-02 9.640000e+01 7.411170e-04 4.014493e-04 -2.696138e-04 2.463367e-02 2.857005e-08 2.860909e-08 2.843421e-08 -1.864061e-04 4.079855e-02 -3.297756e-04 1.000000e+00  7.957747e-04  
-1.100000e+01  -6.000000e+00  -4.000000e+00  0  2329 0  -6.541020e-04 -5.433041e-04 1.859944e-03   7.464367e-02 9.380000e+01 2.036548e-03 8.555161e-04 -1.468935e-04 2.512149e-02 2.949884e-08 3.041888e-08 2.864513e-08 6.272187e-04 4.133763e-02 4.825649e-05 1.000000e+00  7.957747e-04  
-1.100000e+01  -6.000000e+00  -3.000000e+00  0  2505 0  -5.881866e-04 1.884755e-03 -1.876071e-03   7.662813e-02 9.629375e+01 1.651959e-03 2.925410e-04 -1.733112e-04 2.520600e-02 2.985732e-08 3.011138e-08 2.936807e-08 -1.334675e-04 4.102858e-02 4.628609e-05 1.000000e+00  7.957747e-04  
-1.000000e+01  -6.000000e+00  -4.000000e+00  0  2330 0  -7.972932e-04 6.946293e-04 -2.010024e-03   7.703597e-02 9.680625e+01 3.514406e-03 2.785014e-05 6.349083e-04 2.550471e-02 3.001504e-08 3.062175e-08 2.924871e-08 2.649213e-04 4.227102e-02 2.740990e-04 1.000000e+00  7.957747e-04  
-1.000000e+01  -6.000000e+00  -3.000000e+00  0  2506 0  9.824020e-04 2.507927e-04 -2.297309e-05   7.991070e-02 1.004188e+02 2.271274e-03 2.287333e-05 2.370856e-04 2.536193e-02 3.021907e-08 3.053620e-08 2.966419e-08 -2.844439e-04 4.197448e-02 3.432871e-04 1.000000e+00  7.957747e-04  
-9.000000e+00  -6.000000e+00  -4.000000e+00  0  2331 0  -1.173739e-03 -5.832786e-04 -1.130132e-03   7.774222e-02 9.769375e+01 3.517028e-03 -2.834946e-04 3.828975e-05 2.593241e-02 3.101715e-08 3.159562e-08 3.046464e-08 1.734664e-05 4.269651e-02 3.971191e-04 1.000000e+00  7.957747e-04  
-9.000000e+00  -6.000000e+00  -3.000000e+00  0  2507 0  1.694200e-03 -5.371625e-04 -2.920139e-04   8.080098e-02 1.015375e+02 2.730381e-03 1.545892e-04 4.065576e-05 2.547254e-02 3.042663e-08 3.149785e-08 2.969877e-08 -2.761075e-04 4.307518e-02 3.380673e-04 1.000000e+00  7.957747e-04  
-8.000000e+00  -6.000000e+00  -4.000000e+00  0  2332 0  -5.100943e-04 6.583842e-04 6.419786e-04   8.089547e-02 1.016562e+02 3.091140e-03 2.262558e-04 -3.520895e-04 2.562844e-02 3.074619e-08 3.000250e-08 3.091971e-08 -2.767379e-04 4.247183e-02 2.850700e-04 1.000000e+00  7.957747e-04  
-8.000000e+00  -6.000000e+00  -3.000000e+00  0  2508 0  -6.094834e-04 -1.318320e-03 -1.144980e-03   8.161167e-02 1.025563e+02 3.427262e-03 3.532365e-04 -4.839251e-05 2.558351e-02 3.089751e-08 3.143759e-08 3.040501e-08 -3.589553e-04 4.339010e-02 -4.206436e-04 1.000000e+00  7.957747e-04  
-7.000000e+00  -6.000000e+00  -4.000000e+00  0  2333 0  -4.439172e-04 -2.188323e-03 -8.668868e-04   8.376524e-02 1.052625e+02 4.199559e-03 7.556852e-04 -3.682765e-05 2.597301e-02 3.146286e-08 2.994923e-08 3.192025e-08 -3.089661e-04 4.269155e-02 4.190212e-04 1.000000e+00  7.957747e-04  
-7.000000e+00  -6.000000e+00  -3.000000e+00  0  2509 0  1.245909e-03 2.402815e-03 1.649285e-03   8.498377e-02 1.067938e+02 4.135668e-03 7.096140e-04 1.713521e-04 2.591130e-02 3.157273e-08 3.076463e-08 3.179884e-08 1.762708e-06 4.359625e-02 -4.001173e-04 1.000000e+00  7.957747e-04  
-6.000000e+00  -6.000000e+00  -4.000000e+00  0  2334 0  -6.516556e-04 1.407865e-03 5.945439e-04   8.160670e-02 1.025500e+02 5.161430e-03 4.458293e-04 -1.371134e-04 2.612194e-02 3.136076e-08 3.121173e-08 3.119541e-08 -3.191334e-04 4.360313e-02 -1.652639e-04 1.000000e+00  7.957747e-04  
-6.000000e+00  -6.000000e+00  -3.000000e+00  0  2510 0  5.847442e-04 -2.160453e-03 -4.124518e-04   8.425265e-02 1.058750e+02 4.752371e-03 5.013695e-04 -5.168403e-04 2.591552e-02 3.098147e-08 3.000876e-08 3.133479e-08 -1.005460e-04 4.450098e-02 1.790502e-04 1.000000e+00  7.957747e-04  
-5.000000e+00  -6.000000e+00  -4.000000e+00  0  2335 0  5.367658e-04 -7.256323e-04 -4.462066e-05   7.976647e-02 1.002375e+02 5.766288e-03 3.275290e-04 -8.869164e-05 2.620170e-02 3.136035e-08 3.138518e-08 3.114629e-08 -6.312927e-04 4.371119e-02 -5.262716e-04 1.000000e+00  7.957747e-04  
-5.000000e+00  -6.000000e+00  -3.000000e+00  0  2511 0  4.429379e-04 1.603260e-03 2.375291e-03   8.337730e-02 1.047750e+02 5.334290e-03 -8.448434e-05 -2.255254e-04 2.608712e-02 3.103864e-08 3.032207e-08 3.122471e-08 -7.168687e-04 4.452062e-02 -1.517204e-04 1.000000e+00  7.957747e-04  
-4.000000e+00  -6.000000e+00  -4.000000e+00  0  2336 0  -2.339319e-03 -1.027689e-03 -4.575523e-04   8.095018e-02 1.017250e+02 5.512440e-03 1.057385e-04 3.606917e-04 2.606807e-02 3.134613e-08 3.013096e-08 3.164164e-08 -1.824675e-04 4.365359e-02 -5.325767e-05 1.000000e+00  7.957747e-04  
-4.000000e+00  -6.000000e+00  -3.000000e+00  0  2512 0  2.487050e-03 -4.995853e-05 -3.240776e-04   8.266607e-02 1.038812e+02 5.423389e-03 -9.378050e-06 5.002681e-04 2.615087e-02 3.146131e-08 3.097148e-08 3.149355e-08 -2.072933e-04 4.366538e-02 -4.553330e-04 1.000000e+00  7.957747e-04  
-3.000000e+00  -6.000000e+00  -4.000000e+00  0  2337 0  6.784018e-04 -3.701202e-04 1.157023e-03   8.033346e-02 1.009500e+02 5.289024e-03 -4.697354e-04 4.055633e-04 2.561961e-02 3.021649e-08 2.788533e-08 3.116542e-08 6.897026e-04 4.302467e-02 4.412805e-04 1.000000e+00  7.957747e-04  
-3.000000e+00  -6.000000e+00  -3.000000e+00  0  2513 0  -7.415602e-04 -3.754846e-04 -2.008148e-03   8.447149e-02 1.061500e+02 5.181181e-03 1.520711e-04 3.584914e-04 2.577822e-02 3.065763e-08 2.876344e-08 3.135811e-08 4.415462e-04 4.266283e-02 -1.448211e-04 1.000000e+00  7.957747e-04  
-2.000000e+00  -6.000000e+00  -4.000000e+00  0  2338 0  -1.479445e-03 9.491637e-04 -2.288196e-03   7.999525e-02 1.005250e+02 5.058027e-03 -4.768439e-04 2.227738e-04 2.531460e-02 2.933079e-08 2.794677e-08 2.978729e-08 6.574615e-04 4.294413e-02 6.167447e-04 1.000000e+00  7.957747e-04  
-2.000000e+00  -6.000000e+00  -3.000000e+00  0  2514 0  1.291956e-04 -2.634174e-04 -1.953420e-04   8.531202e-02 1.072062e+02 4.630242e-03 -5.763001e-05 2.097300e-04 2.540513e-02 2.968920e-08 2.664849e-08 3.093048e-08 7.442546e-04 4.309718e-02 5.934704e-04 1.000000e+00  7.957747e-04  
-1.000000e+00  -6.000000e+00  -4.000000e+00  0  2339 0  -2.187636e-03 -2.127746e-03 -2.385073e-03   8.079600e-02 1.015312e+02 3.377893e-03 -5.357780e-04 4.231859e-04 2.507593e-02 2.906615e-08 2.900388e-08 2.882655e-08 2.241287e-05 4.338951e-02 2.047843e-05 1.000000e+00  7.957747e-04  
-1.000000e+00  -6.000000e+00  -3.000000e+00  0  2515 0  5.504680e-04 -4.016897e-04 1.186140e-03   8.422281e-02 1.058375e+02 3.450494e-03 -2.643909e-04 2.436918e-04 2.500144e-02 2.886825e-08 2.686813e-08 2.966026e-08 7.371619e-04 4.373589e-02 6.127957e-04 1.000000e+00  7.957747e-04  
0.000000e+00  -6.000000e+00  -4.000000e+00  0  2340 0  -1.176538e-03 4.106390e-04 -7.263291e-04   7.683702e-02 9.655625e+01 2.051979e-03 -6.721677e-05 -8.433150e-05 2.491198e-02 2.892811e-08 2.972980e-08 2.830890e-08 1.724896e-04 4.256005e-02 -2.211406e-04 1.000000e+00  7.957747e-04  
0.000000e+00  -6.000000e+00  -3.000000e+00  0  2516 0  -1.497281e-03 -2.619670e-05 1.402897e-03   8.198469e-02 1.030250e+02 2.500190e-03 -5.792442e-04 -1.941329e-04 2.474850e-02 2.848651e-08 2.779018e-08 2.864162e-08 3.589180e-04 4.239901e-02 -4.054896e-04 1.000000e+00  7.957747e-04  
-1.500000e+01  -5.000000e+00  -4.000000e+00  0  3320 0  -1.151486e-03 -8.638146e-04 -5.746901e-04   7.065485e-02 8.878750e+01 -1.506059e-03 9.586858e-04 3.151927e-04 2.416753e-02 2.785928e-08 2.724586e-08 2.780862e-08 -4.438116e-05 3.861798e-02 -2.502839e-04 1.000000e+00  7.957747e-04  