VARIABLES="X", "Y", "Z", "Maximum Refinment Level", "Temp_ID", "Thread","Ex (corner node)","Ey (corner node)","Ez (corner node)", "Number Density[1/m^3]", "Particle Number", "Vx [m/s]", "Vy [m/s]", "Vz [m/s]", "|V| [m/s]", "Translational Temperature [K]", "Parallel Translational Temperature [K]", "Tangential Translational Temperature [K]","Bx (center node)","By (center node)","Bz (center node)", "Local Time Step" , "log10(Local Particle Weight)" 
ZONE N=5049, E=4096, DATAPACKING=POINT, ZONETYPE=FEBRICK
-1.600000e+01  -8.000000e+00  -4.000000e+00  0  1004 0  -1.973045e-03 1.137200e-04 -1.559828e-03   6.970987e-02 8.760000e+01 -2.910461e-03 6.502725e-04 -9.770438e-04 1.204461e-01 2.826357e-08 2.783865e-08 2.843426e-08 3.682820e-04 3.749470e-02 -3.988450e-04 1.000000e+00  7.957747e-04  
-1.500000e+01  -8.000000e+00  -4.000000e+00  0  1005 0  -1.625126e-03 2.278967e-03 1.453989e-03   6.958553e-02 8.744375e+01 -2.131773e-03 1.048006e-03 -1.107203e-03 1.204216e-01 2.845863e-08 2.840617e-08 2.840768e-08 2.780196e-04 3.834986e-02 -4.081892e-04 1.000000e+00  7.957747e-04  
-1.500000e+01  -7.000000e+00  -4.000000e+00  0  1024 0  -3.219084e-03 1.343451e-03 9.989373e-04   7.446462e-02 9.357500e+01 -2.120128e-03 7.713701e-04 -8.110429e-04 1.187687e-01 2.782548e-08 2.768557e-08 2.785097e-08 1.171069e-04 3.826667e-02 -3.859527e-04 1.000000e+00  7.957747e-04  
-1.600000e+01  -7.000000e+00  -4.000000e+00  0  1023 0  1.340168e-03 -1.452945e-03 1.319645e-04   7.127655e-02 8.956875e+01 -3.260754e-03 2.995407e-04 -1.879607e-03 1.216972e-01 2.865411e-08 2.848768e-08 2.871440e-08 1.342619e-04 3.782066e-02 -3.198080e-04 1.000000e+00  7.957747e-04  
-1.600000e+01  -8.000000e+00  -3.000000e+00  0  1213 0  1.374014e-03 2.169394e-03 4.440964e-04   6.974468e-02 8.764375e+01 -2.507529e-03 6.036272e-04 4.668444e-04 1.202388e-01 2.799415e-08 2.760695e-08 2.815399e-08 1.333947e-04 3.764258e-02 -3.885195e-04 1.000000e+00  7.957747e-04  
-1.500000e+01  -8.000000e+00  -3.000000e+00  0  1214 0  9.095980e-04 -1.289640e-03 -8.603932e-04   7.352958e-02 9.240000e+01 -1.695832e-03 1.030162e-03 -6.803808e-04 1.204390e-01 2.826557e-08 2.837696e-08 2.813785e-08 5.298780e-04 3.823332e-02 -2.236827e-04 1.000000e+00  7.957747e-04  
-1.500000e+01  -7.000000e+00  -3.000000e+00  0  1233 0  2.206564e-04 -7.582431e-05 -1.954256e-03   7.680718e-02 9.651875e+01 -1.212994e-03 1.344023e-03 -9.886608e-04 1.188713e-01 2.761855e-08 2.775325e-08 2.750594e-08 2.240709e-04 3.785079e-02 -5.219606e-04 1.000000e+00  7.957747e-04  
-1.600000e+01  -7.000000e+00  -3.000000e+00  0  1232 0  -2.432504e-03 1.445328e-03 -3.264595e-04   7.143073e-02 8.976250e+01 -2.364517e-03 8.710111e-05 -1.051920e-03 1.193895e-01 2.770184e-08 2.764906e-08 2.770732e-08 8.905712e-05 3.733460e-02 -3.549714e-04 1.000000e+00  7.957747e-04  
-1.400000e+01  -8.000000e+00  -4.000000e+00  0  1006 0  1.870463e-03 2.529442e-03 -2.522775e-04   7.094829e-02 8.915625e+01 -1.853493e-03 2.642368e-04 -1.863497e-03 1.209670e-01 2.842115e-08 2.791758e-08 2.860276e-08 4.888679e-04 4.031820e-02 -9.293999e-05 1.000000e+00  7.957747e-04  
-1.400000e+01  -7.000000e+00  -4.000000e+00  0  1025 0  4.169419e-04 -6.848280e-04 1.984899e-03   7.538473e-02 9.473125e+01 -8.853454e-04 1.060429e-03 -1.266998e-03 1.210377e-01 2.863045e-08 2.841055e-08 2.868632e-08 3.944094e-04 3.911615e-02 -2.090686e-04 1.000000e+00  7.957747e-04  
-1.400000e+01  -8.000000e+00  -3.000000e+00  0  1215 0  -1.075730e-03 -2.963830e-03 -6.437913e-04   7.440991e-02 9.350625e+01 -1.231480e-03 7.738575e-04 -2.184264e-03 1.209901e-01 2.848511e-08 2.853055e-08 2.840238e-08 9.611810e-04 3.973432e-02 3.887339e-04 1.000000e+00  7.957747e-04  
-1.400000e+01  -7.000000e+00  -3.000000e+00  0  1234 0  -6.795668e-04 3.649548e-04 -2.005366e-04   7.571299e-02 9.514375e+01 -7.125385e-04 1.455250e-03 -1.234078e-03 1.227066e-01 2.899408e-08 2.895889e-08 2.896246e-08 3.628614e-04 3.929672e-02 3.078801e-04 1.000000e+00  7.957747e-04  
-1.300000e+01  -8.000000e+00  -4.000000e+00  0  2086 0  -7.678835e-04 1.161208e-03 -9.794973e-04   7.156004e-02 8.992500e+01 -1.291035e-03 -3.915060e-04 -8.471804e-04 1.231207e-01 2.918319e-08 2.876948e-08 2.932343e-08 2.980846e-04 4.116252e-02 6.661039e-04 1.000000e+00  7.957747e-04  
-1.300000e+01  -7.000000e+00  -4.000000e+00  0  2102 0  -1.288005e-04 -2.295507e-03 -1.795078e-03   7.642919e-02 9.604375e+01 1.811909e-04 6.490239e-04 -7.830097e-04 1.210817e-01 2.867381e-08 2.856453e-08 2.867861e-08 7.364827e-04 4.075009e-02 -4.700162e-04 1.000000e+00  7.957747e-04  
-1.300000e+01  -8.000000e+00  -3.000000e+00  0  2262 0  1.935296e-03 2.370394e-03 -1.198249e-03   7.397721e-02 9.296250e+01 5.458661e-05 -2.551463e-03 -1.636860e-03 1.242987e-01 2.980167e-08 2.960895e-08 2.986130e-08 7.580974e-04 4.019224e-02 6.448133e-04 1.000000e+00  7.957747e-04  
-1.300000e+01  -7.000000e+00  -3.000000e+00  0  2278 0  1.280765e-03 -2.576609e-03 1.378827e-03   7.515595e-02 9.444375e+01 1.249269e-04 -1.319077e-03 -6.431911e-04 1.242321e-01 2.973306e-08 2.942810e-08 2.986373e-08 1.064731e-04 4.052277e-02 5.823809e-04 1.000000e+00  7.957747e-04  
-1.200000e+01  -8.000000e+00  -4.000000e+00  0  2087 0  -4.055145e-04 2.067223e-03 -1.488171e-03   7.300238e-02 9.173750e+01 1.079207e-03 1.340781e-04 2.957124e-04 1.233156e-01 2.909083e-08 2.922874e-08 2.895669e-08 -3.340496e-04 4.054938e-02 1.014742e-03 1.000000e+00  7.957747e-04  
-1.200000e+01  -7.000000e+00  -4.000000e+00  0  2103 0  1.074439e-03 -9.373404e-04 3.767602e-04   7.465859e-02 9.381875e+01 1.262319e-03 1.598191e-03 4.831200e-05 1.202746e-01 2.821516e-08 2.830471e-08 2.813123e-08 3.809140e-04 4.065845e-02 -4.826717e-05 1.000000e+00  7.957747e-04  
-1.200000e+01  -8.000000e+00  -3.000000e+00  0  2263 0  -1.270315e-03 9.220421e-04 -1.003793e-03   7.477298e-02 9.396250e+01 1.123193e-03 -1.120838e-03 6.453732e-05 1.245858e-01 2.968990e-08 2.969066e-08 2.964361e-08 4.417911e-04 4.089640e-02 9.071761e-04 1.000000e+00  7.957747e-04  
-1.200000e+01  -7.000000e+00  -3.000000e+00  0  2279 0  -3.237369e-03 -1.813948e-03 -1.035074e-03   7.693649e-02 9.668125e+01 8.914408e-04 1.356744e-03 6.067551e-04 1.240292e-01 2.958556e-08 2.965173e-08 2.951896e-08 -3.556589e-05 4.130122e-02 4.225053e-05 1.000000e+00  7.957747e-04  
-1.100000e+01  -8.000000e+00  -4.000000e+00  0  2088 0  1.752777e-04 -5.644602e-04 -9.691707e-05   7.442980e-02 9.353125e+01 2.657565e-03 -5.078797e-04 -1.347599e-04 1.260522e-01 3.028756e-08 3.028491e-08 3.024977e-08 -3.458508e-04 4.122298e-02 -2.778863e-04 1.000000e+00  7.957747e-04  
-1.100000e+01  -7.000000e+00  -4.000000e+00  0  2104 0  3.118840e-04 -1.615371e-03 1.032563e-03   7.544939e-02 9.481250e+01 2.451709e-03 5.438834e-04 -2.057199e-03 1.246310e-01 2.995418e-08 2.967653e-08 3.004550e-08 3.123872e-04 4.090514e-02 2.364142e-04 1.000000e+00  7.957747e-04  
-1.100000e+01  -8.000000e+00  -3.000000e+00  0  2264 0  2.762959e-04 1.284350e-03 1.854029e-04   7.564833e-02 9.506250e+01 1.692832e-03 -2.413082e-04 -2.282426e-06 1.241373e-01 2.937185e-08 2.933994e-08 2.934553e-08 4.030932e-04 4.158650e-02 -6.881323e-05 1.000000e+00  7.957747e-04  
-1.100000e+01  -7.000000e+00  -3.000000e+00  0  2280 0  2.138832e-03 1.434488e-03 -3.180752e-03   7.766264e-02 9.759375e+01 2.141693e-03 6.189184e-04 -1.182740e-03 1.254306e-01 3.002115e-08 3.015287e-08 2.990062e-08 4.065784e-04 4.107087e-02 4.084373e-05 1.000000e+00  7.957747e-04  
-1.000000e+01  -8.000000e+00  -4.000000e+00  0  2089 0  -2.850758e-03 1.563874e-03 -9.106241e-05   7.642421e-02 9.603750e+01 3.640595e-03 -1.277765e-03 -8.653189e-04 1.280507e-01 3.116219e-08 3.091016e-08 3.125058e-08 -6.684912e-05 4.204822e-02 -6.482664e-04 1.000000e+00  7.957747e-04  
-1.000000e+01  -7.000000e+00  -4.000000e+00  0  2105 0  -4.032323e-03 -1.734495e-03 3.512564e-04   8.089050e-02 1.016500e+02 3.301029e-03 -3.109798e-05 -8.082668e-04 1.274429e-01 3.096892e-08 3.079539e-08 3.097791e-08 3.346625e-04 4.225771e-02 1.515571e-04 1.000000e+00  7.957747e-04  
-1.000000e+01  -8.000000e+00  -3.000000e+00  0  2265 0  2.449900e-03 4.633578e-04 3.375961e-04   7.810529e-02 9.815000e+01 3.038128e-03 6.493559e-04 -8.876067e-04 1.252788e-01 2.988198e-08 2.978557e-08 2.986480e-08 7.317850e-04 4.222137e-02 -5.624845e-04 1.000000e+00  7.957747e-04  
-1.000000e+01  -7.000000e+00  -3.000000e+00  0  2281 0  3.653850e-04 2.824388e-04 -8.178389e-04   8.124860e-02 1.021000e+02 3.262162e-03 8.392024e-04 -1.392039e-03 1.256282e-01 2.994780e-08 2.999634e-08 2.984971e-08 6.044908e-04 4.190841e-02 1.613195e-04 1.000000e+00  7.957747e-04  
-9.000000e+00  -8.000000e+00  -4.000000e+00  0  2090 0  -1.350653e-03 8.366207e-04 -1.367864e-03   7.824952e-02 9.833125e+01 3.544488e-03 -1.435938e-03 1.427373e-04 1.276274e-01 3.104286e-08 3.084758e-08 3.110235e-08 1.741740e-05 4.215927e-02 -2.351125e-04 1.000000e+00  7.957747e-04  
-9.000000e+00  -7.000000e+00  -4.000000e+00  0  2106 0  2.252391e-03 6.171307e-04 -2.055549e-03   7.997536e-02 1.005000e+02 3.507199e-03 -7.573921e-04 7.421619e-04 1.269822e-01 3.083652e-08 3.085952e-08 3.077737e-08 -1.208048e-04 4.248349e-02 3.715812e-04 1.000000e+00  7.957747e-04  
-9.000000e+00  -8.000000e+00  -3.000000e+00  0  2266 0  1.490446e-04 9.891469e-04 1.784697e-03   8.134310e-02 1.022188e+02 2.997751e-03 1.282091e-03 2.949133e-04 1.249734e-01 2.979902e-08 2.974530e-08 2.977376e-08 6.843418e-04 4.277191e-02 -3.201680e-04 1.000000e+00  7.957747e-04  
-9.000000e+00  -7.000000e+00  -3.000000e+00  0  2282 0  -6.381182e-05 -5.420681e-04 -3.749177e-04   8.296946e-02 1.042625e+02 3.408310e-03 1.434905e-03 3.470720e-04 1.242403e-01 2.937338e-08 2.939007e-08 2.930470e-08 3.587223e-04 4.321387e-02 3.627964e-04 1.000000e+00  7.957747e-04  
-8.000000e+00  -8.000000e+00  -4.000000e+00  0  2091 0  4.491458e-04 2.369714e-03 7.148269e-04   7.649882e-02 9.613125e+01 3.834572e-03 -1.169451e-03 -4.736300e-04 1.272678e-01 3.110480e-08 3.085193e-08 3.117023e-08 2.535086e-04 4.253611e-02 -1.827620e-04 1.000000e+00  7.957747e-04  
-8.000000e+00  -7.000000e+00  -4.000000e+00  0  2107 0  1.706852e-03 -2.830260e-04 -2.020252e-03   7.745872e-02 9.733750e+01 3.848771e-03 -1.245565e-03 -1.232406e-03 1.278930e-01 3.153393e-08 3.133658e-08 3.155902e-08 -2.498587e-04 4.207390e-02 3.062992e-04 1.000000e+00  7.957747e-04  
-8.000000e+00  -8.000000e+00  -3.000000e+00  0  2267 0  -1.727182e-03 -9.135548e-06 8.448133e-04   8.014446e-02 1.007125e+02 3.488268e-03 1.823275e-04 -5.178945e-05 1.261420e-01 3.047553e-08 3.000187e-08 3.068867e-08 1.740570e-04 4.338459e-02 2.391711e-05 1.000000e+00  7.957747e-04  
-8.000000e+00  -7.000000e+00  -3.000000e+00  0  2283 0  -7.102125e-04 -2.536464e-03 1.823621e-04   8.050753e-02 1.011688e+02 3.812485e-03 1.320870e-04 2.590143e-04 1.244496e-01 2.960529e-08 2.928033e-08 2.972726e-08 1.331310e-04 4.326333e-02 6.395884e-04 1.000000e+00  7.957747e-04  
-7.000000e+00  -8.000000e+00  -4.000000e+00  0  2092 0  -6.397507e-04 1.192031e-03 1.671433e-03   7.802571e-02 9.805000e+01 4.438894e-03 5.545676e-04 -9.211170e-04 1.264451e-01 3.085682e-08 3.016858e-08 3.113230e-08 1.117469e-04 4.285828e-02 -1.141116e-04 1.000000e+00  7.957747e-04  
-7.000000e+00  -7.000000e+00  -4.000000e+00  0  2108 0  5.271954e-04 -1.553571e-03 -2.613144e-03   7.928900e-02 9.963750e+01 5.049210e-03 1.500692e-03 -1.438952e-03 1.253860e-01 3.043408e-08 2.999692e-08 3.055741e-08 -7.312395e-05 4.245788e-02 4.683298e-04 1.000000e+00  7.957747e-04  
-7.000000e+00  -8.000000e+00  -3.000000e+00  0  2268 0  1.677076e-03 -1.588523e-03 1.623914e-03   8.012457e-02 1.006875e+02 4.167803e-03 4.627296e-04 3.271357e-04 1.284982e-01 3.157822e-08 3.087604e-08 3.185908e-08 -9.870262e-05 4.288696e-02 7.965619e-04 1.000000e+00  7.957747e-04  
-7.000000e+00  -7.000000e+00  -3.000000e+00  0  2284 0  -6.232177e-04 -9.433502e-04 -5.759301e-04   8.047272e-02 1.011250e+02 4.191155e-03 6.374323e-04 -4.788330e-04 1.265291e-01 3.056396e-08 3.014918e-08 3.069895e-08 -6.818330e-05 4.305696e-02 2.706570e-04 1.000000e+00  7.957747e-04  
-6.000000e+00  -8.000000e+00  -4.000000e+00  0  2093 0  4.027767e-03 -6.717400e-04 -1.944342e-03   8.004002e-02 1.005812e+02 4.608892e-03 5.388245e-04 -3.443823e-04 1.272937e-01 3.126260e-08 2.995274e-08 3.187201e-08 -4.320704e-04 4.342467e-02 5.545228e-04 1.000000e+00  7.957747e-04  
-6.000000e+00  -7.000000e+00  -4.000000e+00  0  2109 0  3.365066e-03 6.420067e-04 1.621999e-03   8.080595e-02 1.015438e+02 5.506332e-03 1.404936e-03 2.587158e-04 1.235567e-01 2.950755e-08 2.879700e-08 2.981715e-08 -1.430978e-04 4.338175e-02 5.705577e-04 1.000000e+00  7.957747e-04  
-6.000000e+00  -8.000000e+00  -3.000000e+00  0  2269 0  -3.045281e-03 1.020661e-03 3.731695e-04   8.273570e-02 1.039688e+02 4.494499e-03 -4.867122e-04 -9.750013e-04 1.261336e-01 3.057572e-08 2.945533e-08 3.104548e-08 -1.483792e-05 4.300610e-02 6.582537e-04 1.000000e+00  7.957747e-04  
-6.000000e+00  -7.000000e+00  -3.000000e+00  0  2285 0  -1.686472e-03 -3.992048e-04 3.074850e-04   8.030362e-02 1.009125e+02 4.435491e-03 3.810900e-04 -1.101302e-03 1.235375e-01 2.932858e-08 2.871641e-08 2.956665e-08 -4.328581e-04 4.367169e-02 2.561555e-04 1.000000e+00  7.957747e-04  
-5.000000e+00  -8.000000e+00  -4.000000e+00  0  2094 0  -1.766159e-03 6.692464e-04 -1.146944e-03   7.905524e-02 9.934375e+01 5.552618e-03 -1.802521e-03 5.666725e-05 1.284313e-01 3.166675e-08 3.101909e-08 3.196638e-08 -3.118853e-04 4.350980e-02 1.297044e-04 1.000000e+00  7.957747e-04  
-5.000000e+00  -7.000000e+00  -4.000000e+00  0  2110 0  5.236924e-04 1.891773e-03 -1.259501e-03   7.971673e-02 1.001750e+02 5.494646e-03 -4.883195e-04 3.070778e-04 1.277755e-01 3.132289e-08 3.061482e-08 3.164474e-08 -4.191009e-04 4.357989e-02 -3.870342e-05 1.000000e+00  7.957747e-04  
-5.000000e+00  -8.000000e+00  -3.000000e+00  0  2270 0  5.188301e-04 -9.986248e-04 -2.688245e-03   8.222342e-02 1.033250e+02 5.120579e-03 -2.218982e-03 -1.260056e-03 1.255021e-01 3.034860e-08 2.910132e-08 3.092767e-08 2.121416e-05 4.453132e-02 -3.294705e-04 1.000000e+00  7.957747e-04  
-5.000000e+00  -7.000000e+00  -3.000000e+00  0  2286 0  -1.646743e-03 5.904923e-04 6.459131e-04   8.155696e-02 1.024875e+02 4.625887e-03 -6.517109e-04 -5.318437e-05 1.235505e-01 2.935979e-08 2.855708e-08 2.972532e-08 -7.027659e-04 4.497052e-02 -1.111484e-04 1.000000e+00  7.957747e-04  
-4.000000e+00  -8.000000e+00  -4.000000e+00  0  2095 0  -1.771450e-03 2.139929e-03 -1.174334e-03   8.069653e-02 1.014062e+02 5.272245e-03 -2.036792e-03 9.405347e-04 1.272970e-01 3.116362e-08 3.048887e-08 3.146789e-08 -3.008570e-04 4.382243e-02 -1.013947e-03 1.000000e+00  7.957747e-04  
-4.000000e+00  -7.000000e+00  -4.000000e+00  0  2111 0  -2.601962e-03 -2.533154e-03 2.261216e-04   8.033346e-02 1.009500e+02 4.604934e-03 -6.960102e-04 7.119797e-04 1.276175e-01 3.133773e-08 3.071502e-08 3.160219e-08 -5.024331e-04 4.372937e-02 -5.227872e-04 1.000000e+00  7.957747e-04  
-4.000000e+00  -8.000000e+00  -3.000000e+00  0  2271 0  -7.550729e-04 9.779182e-04 6.125255e-04   7.993557e-02 1.004500e+02 5.473945e-03 -1.454908e-03 1.473011e-03 1.238303e-01 2.958533e-08 2.898664e-08 2.985254e-08 -4.032714e-04 4.459909e-02 -4.183375e-04 1.000000e+00  7.957747e-04  
-4.000000e+00  -7.000000e+00  -3.000000e+00  0  2287 0  3.009241e-03 -1.374752e-04 -1.018388e-03   8.342703e-02 1.048375e+02 4.784963e-03 -1.554202e-03 2.255717e-03 1.242046e-01 2.967996e-08 2.933474e-08 2.982398e-08 -8.055760e-04 4.448722e-02 -2.915362e-04 1.000000e+00  7.957747e-04  
-3.000000e+00  -8.000000e+00  -4.000000e+00  0  2096 0  -1.239655e-03 5.409693e-04 5.469654e-03   8.162162e-02 1.025687e+02 5.007297e-03 -6.864806e-04 -1.100485e-03 1.266107e-01 3.086046e-08 2.951286e-08 3.148157e-08 -5.595758e-04 4.312795e-02 -5.699307e-04 1.000000e+00  7.957747e-04  
-3.000000e+00  -7.000000e+00  -4.000000e+00  0  2112 0  2.629155e-03 -9.837045e-04 4.753790e-04   8.248205e-02 1.036500e+02 3.936466e-03 -1.046405e-03 3.376663e-05 1.271271e-01 3.100468e-08 2.985596e-08 3.153621e-08 -2.609597e-04 4.275831e-02 -2.128806e-04 1.000000e+00  7.957747e-04  
-3.000000e+00  -8.000000e+00  -3.000000e+00  0  2272 0  -7.019811e-04 -1.522957e-03 -4.546673e-03   7.912985e-02 9.943750e+01 5.727546e-03 1.715350e-03 1.468989e-04 1.225449e-01 2.898266e-08 2.826015e-08 2.930109e-08 -6.636822e-04 4.394546e-02 9.348174e-05 1.000000e+00  7.957747e-04  
-3.000000e+00  -7.000000e+00  -3.000000e+00  0  2288 0  1.990499e-03 -3.235501e-04 -1.687859e-03   8.233782e-02 1.034688e+02 4.679458e-03 5.312169e-04 1.734197e-03 1.251886e-01 3.004320e-08 2.932871e-08 3.033469e-08 -7.192900e-04 4.304243e-02 -3.417479e-05 1.000000e+00  7.957747e-04  
-2.000000e+00  -8.000000e+00  -4.000000e+00  0  2097 0  -6.164426e-05 -7.760159e-04 -1.687985e-03   8.115410e-02 1.019813e+02 4.744344e-03 2.182024e-03 -1.248861e-03 1.251727e-01 3.004795e-08 2.841439e-08 3.082165e-08 -2.852454e-04 4.304110e-02 -1.453603e-04 1.000000e+00  7.957747e-04  
-2.000000e+00  -7.000000e+00  -4.000000e+00  0  2113 0  3.466048e-03 -1.660597e-03 2.892722e-04   8.230797e-02 1.034313e+02 4.421027e-03 1.786482e-03 -7.058541e-04 1.253549e-01 3.001148e-08 2.810101e-08 3.092296e-08 2.780799e-04 4.272131e-02 3.120629e-04 1.000000e+00  7.957747e-04  
-2.000000e+00  -8.000000e+00  -3.000000e+00  0  2273 0  -2.483908e-03 1.159249e-03 -2.345648e-04   8.092531e-02 1.016937e+02 4.661587e-03 1.239206e-03 -9.275316e-05 1.250045e-01 3.019877e-08 2.836772e-08 3.103689e-08 -5.415105e-04 4.408909e-02 7.466330e-05 1.000000e+00  7.957747e-04  
-2.000000e+00  -7.000000e+00  -3.000000e+00  0  2289 0  -7.175560e-04 -5.448804e-04 8.791036e-04   8.442175e-02 1.060875e+02 4.108118e-03 8.313302e-04 -2.587958e-04 1.258110e-01 3.022570e-08 2.840594e-08 3.104055e-08 -2.233997e-04 4.366773e-02 -1.676826e-04 1.000000e+00  7.957747e-04  
-1.000000e+00  -8.000000e+00  -4.000000e+00  0  2098 0  -1.663016e-03 -3.655609e-04 -1.360462e-03   8.017430e-02 1.007500e+02 3.909911e-03 1.622689e-04 1.510115e-03 1.244313e-01 2.953816e-08 2.797899e-08 3.024059e-08 6.743950e-05 4.303110e-02 5.214442e-05 1.000000e+00  7.957747e-04  
-1.000000e+00  -7.000000e+00  -4.000000e+00  0  2114 0  -1.553994e-03 -1.255201e-03 -5.684338e-04   8.141770e-02 1.023125e+02 3.874200e-03 5.567407e-05 1.397387e-03 1.233891e-01 2.900145e-08 2.780425e-08 2.952151e-08 4.466090e-04 4.346210e-02 5.799741e-04 1.000000e+00  7.957747e-04  
-1.000000e+00  -8.000000e+00  -3.000000e+00  0  2274 0  1.538823e-03 8.976826e-04 3.579105e-03   7.992562e-02 1.004375e+02 3.225450e-03 -7.878501e-04 2.226948e-03 1.234921e-01 2.933213e-08 2.751320e-08 3.018061e-08 3.274704e-05 4.322948e-02 -2.952612e-04 1.000000e+00  7.957747e-04  
-1.000000e+00  -7.000000e+00  -3.000000e+00  0  2290 0  -1.604688e-03 1.220680e-04 1.631512e-03   8.542642e-02 1.073500e+02 3.460668e-03 -1.500716e-03 8.217143e-04 1.224516e-01 2.856033e-08 2.714145e-08 2.919280e-08 2.565737e-04 4.319999e-02 -4.869991e-05 1.000000e+00  7.957747e-04  
0.000000e+00  -8.000000e+00  -4.000000e+00  0  2099 0  -6.089360e-04 -7.216071e-04 -1.937983e-03   7.792624e-02 9.792500e+01 3.508900e-03 -8.631953e-04 6.870342e-04 1.237939e-01 2.909668e-08 2.889289e-08 2.912624e-08 6.187038e-05 4.207993e-02 8.036653e-05 1.000000e+00  7.957747e-04  
0.000000e+00  -7.000000e+00  -4.000000e+00  0  2115 0  -2.830245e-03 -1.870593e-03 1.584279e-03   7.851312e-02 9.866250e+01 2.920343e-03 -2.680015e-03 8.790267e-04 1.227944e-01 2.859084e-08 2.880294e-08 2.844508e-08 2.827620e-04 4.251850e-02 4.848615e-04 1.000000e+00  7.957747e-04  
0.000000e+00  -8.000000e+00  -3.000000e+00  0  2275 0  1.649449e-03 -6.714260e-04 8.972074e-04   7.854794e-02 9.870625e+01 2.309485e-03 2.804657e-04 7.399999e-04 1.218759e-01 2.845908e-08 2.747730e-08 2.890020e-08 4.257112e-04 4.164672e-02 4.343699e-04 1.000000e+00  7.957747e-04  
0.000000e+00  -7.000000e+00  -3.000000e+00  0  2291 0  5.161939e-03 -1.300502e-03 -2.607799e-03   8.176088e-02 1.027438e+02 2.590165e-03 -2.008159e-03 9.192522e-04 1.206666e-01 2.780787e-08 2.715519e-08 2.810872e-08 4.573067e-04 4.177821e-02 -2.889073e-04 1.000000e+00  7.957747e-04  
-1.500000e+01  -6.000000e+00  -4.000000e+00  0  1043 0  -8.351351e-04 3.565568e-03 1.581775e-03   7.487743e-02 9.409375e+01 -2.499908e-03 2.803995e-04 -3.921937e-04 1.197398e-01 2.784846e-08 2.667441e-08 2.840019e-08 4.014175e-04 3.848909e-02 9.190466e-05 1.000000e+00  7.957747e-04  
-1.600000e+01  -6.000000e+00  -4.000000e+00  0  1042 0  -2.160734e-03 3.183901e-03 -2.889121e-04   7.256968e-02 9.119375e+01 -3.195939e-03 -5.922231e-06 -1.162391e-03 1.216120e-01 2.839452e-08 2.773823e-08 2.868282e-08 3.472813e-04 3.805743e-02 4.030385e-04 1.000000e+00  7.957747e-04  
-1.500000e+01  -6.000000e+00  -3.000000e+00  0  1252 0  1.175220e-03 -1.360964e-03 2.817916e-03   7.609098e-02 9.561875e+01 -2.457067e-03 4.897236e-04 -4.947285e-04 1.195592e-01 2.757727e-08 2.695726e-08 2.784873e-08 -3.394875e-04 3.840106e-02 -5.030078e-04 1.000000e+00  7.957747e-04  
-1.600000e+01  -6.000000e+00  -3.000000e+00  0  1251 0  1.166762e-03 9.541298e-04 -1.532886e-03   7.148046e-02 8.982500e+01 -3.321115e-03 -9.985405e-04 -1.088886e-03 1.184466e-01 2.715446e-08 2.645648e-08 2.747095e-08 -1.499739e-04 3.752458e-02 -1.280407e-05 1.000000e+00  7.957747e-04  
-1.400000e+01  -6.000000e+00  -4.000000e+00  0  1044 0  5.060670e-03 -1.442753e-03 3.025024e-04   7.643416e-02 9.605000e+01 -8.296514e-04 4.666329e-04 -2.721395e-04 1.202389e-01 2.796616e-08 2.762991e-08 2.808744e-08 2.280270e-04 3.880679e-02 -2.980839e-04 1.000000e+00  7.957747e-04  
-1.400000e+01  -6.000000e+00  -3.000000e+00  0  1253 0  -2.771069e-03 1.422991e-03 -2.307188e-04   7.423583e-02 9.328750e+01 -8.904444e-04 4.735938e-05 -1.249939e-04 1.228396e-01 2.870666e-08 2.846811e-08 2.878229e-08 -4.768933e-04 3.926953e-02 -6.255455e-04 1.000000e+00  7.957747e-04  
-1.300000e+01  -6.000000e+00  -4.000000e+00  0  2118 0  4.463924e-04 -1.966983e-03 -2.079635e-03   7.753333e-02 9.743125e+01 7.097141e-04 1.221701e-03 -9.168658e-04 1.205655e-01 2.827904e-08 2.847708e-08 2.812381e-08 -2.838352e-05 4.029679e-02 -1.119651e-04 1.000000e+00  7.957747e-04  
-1.300000e+01  -6.000000e+00  -3.000000e+00  0  2294 0  -3.392651e-03 1.968226e-03 1.532739e-03   7.562844e-02 9.503750e+01 6.509440e-04 -4.887916e-04 -9.765010e-04 1.232388e-01 2.919281e-08 2.899034e-08 2.925001e-08 -4.754439e-04 4.037746e-02 -2.494125e-04 1.000000e+00  7.957747e-04  
-1.200000e+01  -6.000000e+00  -4.000000e+00  0  2119 0  -1.669044e-03 -1.579420e-04 -2.637547e-03   7.522558e-02 9.453125e+01 1.556459e-03 1.551934e-03 -1.140497e-03 1.231642e-01 2.935364e-08 2.968918e-08 2.914594e-08 3.323600e-04 4.086431e-02 -4.158117e-04 1.000000e+00  7.957747e-04  
-1.200000e+01  -6.000000e+00  -3.000000e+00  0  2295 0  -1.275601e-03 2.096796e-03 -2.589467e-03   7.823958e-02 9.831875e+01 1.255492e-03 2.322982e-03 -1.452175e-03 1.249136e-01 2.991916e-08 3.009120e-08 2.980042e-08 -2.766958e-04 4.068397e-02 -4.731599e-04 1.000000e+00  7.957747e-04  
-1.100000e+01  -6.000000e+00  -4.000000e+00  0  2120 0  1.113601e-03 -1.373523e-03 1.815494e-03   7.538473e-02 9.473125e+01 2.392343e-03 5.437536e-04 -1.713535e-03 1.247534e-01 2.984741e-08 2.999534e-08 2.973161e-08 5.091657e-04 4.120663e-02 -4.398124e-05 1.000000e+00  7.957747e-04  
-1.100000e+01  -6.000000e+00  -3.000000e+00  0  2296 0  1.214786e-04 1.320706e-03 -2.262728e-03   7.711057e-02 9.690000e+01 2.391559e-03 4.112314e-05 -1.116277e-03 1.270391e-01 3.055378e-08 3.106607e-08 3.024230e-08 -2.414118e-04 4.076584e-02 -5.235684e-05 1.000000e+00  7.957747e-04  
-1.000000e+01  -6.000000e+00  -4.000000e+00  0  2121 0  2.675492e-04 1.168318e-03 -3.137463e-03   7.971176e-02 1.001688e+02 3.104989e-03 1.006525e-03 -5.031702e-04 1.251164e-01 2.999895e-08 3.014102e-08 2.981357e-08 2.247473e-04 4.244866e-02 3.622963e-04 1.000000e+00  7.957747e-04  
-1.000000e+01  -6.000000e+00  -3.000000e+00  0  2297 0  -4.207318e-04 -2.493321e-04 -1.009129e-03   8.063187e-02 1.013250e+02 3.226669e-03 1.034772e-03 -7.949809e-04 1.245839e-01 2.960830e-08 2.989816e-08 2.938917e-08 -2.967353e-04 4.178554e-02 6.114919e-04 1.000000e+00  7.957747e-04  
-9.000000e+00  -6.000000e+00  -4.000000e+00  0  2122 0  4.982774e-04 -1.503585e-03 2.120025e-04   7.797597e-02 9.798750e+01 3.459820e-03 -9.117320e-04 5.415473e-05 1.255241e-01 3.016853e-08 3.016563e-08 3.006443e-08 -2.721605e-05 4.288696e-02 2.163232e-04 1.000000e+00  7.957747e-04  
-9.000000e+00  -6.000000e+00  -3.000000e+00  0  2298 0  1.079310e-04 -7.029334e-04 -1.695687e-04   7.974657e-02 1.002125e+02 3.660915e-03 2.425732e-04 -2.209371e-04 1.236881e-01 2.938546e-08 2.943880e-08 2.927350e-08 -2.406434e-04 4.314451e-02 4.610669e-04 1.000000e+00  7.957747e-04  
-8.000000e+00  -6.000000e+00  -4.000000e+00  0  2123 0  -7.083313e-04 -5.197137e-04 2.772644e-04   7.966202e-02 1.001063e+02 3.267562e-03 -7.621686e-04 -2.381178e-04 1.267826e-01 3.072701e-08 3.056837e-08 3.074182e-08 -2.476015e-04 4.249038e-02 2.206867e-04 1.000000e+00  7.957747e-04  
-8.000000e+00  -6.000000e+00  -3.000000e+00  0  2299 0  1.956590e-04 -9.750027e-04 -5.247294e-04   8.098500e-02 1.017687e+02 3.619374e-03 -1.714472e-04 2.367022e-04 1.247535e-01 2.967500e-08 2.965551e-08 2.961163e-08 -2.758035e-04 4.331871e-02 -5.443340e-04 1.000000e+00  7.957747e-04  
-7.000000e+00  -6.000000e+00  -4.000000e+00  0  2124 0  -1.141298e-03 -8.404551e-04 -1.460764e-03   8.234776e-02 1.034813e+02 4.630277e-03 2.086482e-03 -6.221576e-05 1.253380e-01 3.017875e-08 3.001827e-08 3.019470e-08 -1.059590e-04 4.259640e-02 5.312201e-04 1.000000e+00  7.957747e-04  
-7.000000e+00  -6.000000e+00  -3.000000e+00  0  2300 0  8.874306e-04 2.460277e-03 3.877823e-03   8.363592e-02 1.051000e+02 3.975453e-03 1.350723e-03 -4.803734e-04 1.253682e-01 3.003700e-08 3.000230e-08 3.000452e-08 1.112057e-04 4.345140e-02 -3.482639e-04 1.000000e+00  7.957747e-04  
-6.000000e+00  -6.000000e+00  -4.000000e+00  0  2125 0  1.347558e-03 2.206971e-03 -1.006552e-03   8.106458e-02 1.018688e+02 5.946810e-03 1.377788e-03 6.552587e-04 1.261991e-01 3.041677e-08 2.977837e-08 3.069543e-08 -1.944215e-04 4.360092e-02 -3.880105e-04 1.000000e+00  7.957747e-04  
-6.000000e+00  -6.000000e+00  -3.000000e+00  0  2301 0  -6.018530e-04 -1.817983e-03 -2.773693e-03   8.086563e-02 1.016188e+02 4.806883e-03 1.501862e-03 -1.158737e-03 1.244896e-01 2.974100e-08 2.943351e-08 2.985872e-08 -1.505497e-04 4.450003e-02 2.079396e-04 1.000000e+00  7.957747e-04  
-5.000000e+00  -6.000000e+00  -4.000000e+00  0  2126 0  -2.700665e-04 -9.187048e-04 -2.053339e-03   8.018922e-02 1.007687e+02 5.679939e-03 1.546441e-04 5.519438e-04 1.307361e-01 3.249326e-08 3.139360e-08 3.299203e-08 -5.977726e-04 4.360711e-02 -7.348818e-04 1.000000e+00  7.957747e-04  
-5.000000e+00  -6.000000e+00  -3.000000e+00  0  2302 0  3.060133e-03 2.511021e-03 4.562702e-03   8.116902e-02 1.020000e+02 4.495001e-03 1.447032e-04 5.146747e-04 1.251386e-01 2.992205e-08 2.901541e-08 3.031831e-08 -8.049572e-04 4.475760e-02 -2.021332e-04 1.000000e+00  7.957747e-04  
-4.000000e+00  -6.000000e+00  -4.000000e+00  0  2127 0  -2.795639e-03 -1.759784e-03 -7.456597e-04   8.017430e-02 1.007500e+02 4.401430e-03 4.458523e-04 5.754216e-04 1.289396e-01 3.200624e-08 3.106784e-08 3.242070e-08 -7.393044e-05 4.335109e-02 -6.863541e-05 1.000000e+00  7.957747e-04  
-4.000000e+00  -6.000000e+00  -3.000000e+00  0  2303 0  1.077347e-03 -1.199834e-04 2.377825e-03   8.461075e-02 1.063250e+02 4.038507e-03 -2.333091e-03 2.914682e-03 1.243173e-01 2.979417e-08 2.903165e-08 3.012782e-08 -2.403394e-04 4.389284e-02 -5.041537e-04 1.000000e+00  7.957747e-04  
-3.000000e+00  -6.000000e+00  -4.000000e+00  0  2128 0  3.082395e-03 2.761525e-04 -8.061696e-05   8.103473e-02 1.018312e+02 4.275328e-03 -7.537698e-04 2.796497e-04 1.260106e-01 3.051587e-08 2.923157e-08 3.111821e-08 9.168517e-04 4.297246e-02 4.089388e-04 1.000000e+00  7.957747e-04  
-3.000000e+00  -6.000000e+00  -3.000000e+00  0  2304 0  -2.443782e-03 -3.418708e-04 -2.879172e-03   8.359613e-02 1.050500e+02 4.507805e-03 2.791679e-04 1.563283e-03 1.231482e-01 2.923186e-08 2.819472e-08 2.967383e-08 2.958570e-04 4.253941e-02 -1.587143e-04 1.000000e+00  7.957747e-04  
-2.000000e+00  -6.000000e+00  -4.000000e+00  0  2129 0  -7.581796e-04 2.636824e-03 -2.168066e-03   8.079600e-02 1.015312e+02 4.788010e-03 -5.549672e-04 2.082978e-04 1.218004e-01 2.854133e-08 2.727470e-08 2.914164e-08 8.942212e-04 4.296480e-02 7.445681e-04 1.000000e+00  7.957747e-04  
-2.000000e+00  -6.000000e+00  -3.000000e+00  0  2305 0  -4.181847e-05 -5.136171e-04 9.504866e-04   8.353645e-02 1.049750e+02 4.747048e-03 9.413949e-04 -1.013506e-03 1.231442e-01 2.878173e-08 2.735657e-08 2.944524e-08 6.685450e-04 4.329318e-02 6.481990e-04 1.000000e+00  7.957747e-04  
-1.000000e+00  -6.000000e+00  -4.000000e+00  0  2130 0  -1.205739e-03 -2.167589e-03 -3.432013e-03   8.030362e-02 1.009125e+02 3.961484e-03 5.503649e-05 1.457383e-03 1.207468e-01 2.788018e-08 2.739427e-08 2.805357e-08 2.514313e-04 4.328516e-02 1.029846e-04 1.000000e+00  7.957747e-04  
-1.000000e+00  -6.000000e+00  -3.000000e+00  0  2306 0  7.374794e-04 -2.736888e-04 1.318917e-03   8.494895e-02 1.067500e+02 3.670918e-03 -1.117849e-03 6.385090e-04 1.217561e-01 2.810366e-08 2.762114e-08 2.829475e-08 8.086863e-04 4.392429e-02 7.456143e-04 1.000000e+00  7.957747e-04  
0.000000e+00  -6.000000e+00  -4.000000e+00  0  2131 0  -2.671236e-03 1.289439e-03 1.093096e-04   7.704591e-02 9.681875e+01 2.886282e-03 -1.576913e-03 1.168842e-03 1.232192e-01 2.867287e-08 2.831236e-08 2.877983e-08 3.267982e-04 4.252779e-02 -4.650204e-04 1.000000e+00  7.957747e-04  
0.000000e+00  -6.000000e+00  -3.000000e+00  0  2307 0  1.110468e-03 -5.616230e-04 1.061955e-03   8.209411e-02 1.031625e+02 2.386834e-03 -1.580779e-03 2.075254e-03 1.205117e-01 2.781684e-08 2.772203e-08 2.784440e-08 3.376255e-04 4.241465e-02 -5.394907e-04 1.000000e+00  7.957747e-04  
-1.500000e+01  -5.000000e+00  -4.000000e+00  0  2935 0  -2.246533e-03 -1.405967e-03 -4.585443e-04   7.061009e-02 8.873125e+01 -2.538682e-03 4.512949e-04 -5.090245e-04 1.229187e-01 2.901370e-08 2.758430e-08 2.966844e-08 -1.572067e-04 3.843305e-02 -3.955503e-04 1.000000e+00  7.957747e-04  