VARIABLES="X", "Y", "Z", "Maximum Refinment Level", "Temp_ID", "Thread","Ex (corner node)","Ey (corner node)","Ez (corner node)", "Number Density[1/m^3]", "Particle Number", "Vx [m/s]", "Vy [m/s]", "Vz [m/s]", "|V| [m/s]", "Translational Temperature [K]", "Parallel Translational Temperature [K]", "Tangential Translational Temperature [K]","Bx (center node)","By (center node)","Bz (center node)", "Local Time Step" , "log10(Local Particle Weight)" 
ZONE N=5049, E=4096, DATAPACKING=POINT, ZONETYPE=FEBRICK
-1.600000e+01  -8.000000e+00  -4.000000e+00  0  1004 0  -1.219699e-03 9.831419e-04 9.873725e-05   7.201761e-02 9.050000e+01 -3.633806e-03 2.488437e-04 -1.872204e-03 1.201373e-01 2.732181e-08 2.735785e-08 2.725891e-08 4.042908e-04 3.792373e-02 2.305987e-05 1.000000e+00  7.957747e-04  
-1.500000e+01  -8.000000e+00  -4.000000e+00  0  1005 0  7.865241e-04 1.313911e-03 1.267041e-03   7.029675e-02 8.833750e+01 -1.762020e-03 -8.130499e-04 -7.815849e-04 1.201451e-01 2.758562e-08 2.744203e-08 2.760444e-08 -2.466246e-04 3.831865e-02 -3.404728e-04 1.000000e+00  7.957747e-04  
-1.500000e+01  -7.000000e+00  -4.000000e+00  0  1024 0  9.803745e-04 1.408970e-04 -1.219076e-03   6.898372e-02 8.668750e+01 -9.792528e-04 -1.489954e-03 -1.692380e-03 1.208140e-01 2.789676e-08 2.767637e-08 2.795520e-08 -3.314122e-04 3.930466e-02 1.972118e-04 1.000000e+00  7.957747e-04  
-1.600000e+01  -7.000000e+00  -4.000000e+00  0  1023 0  -9.000007e-04 1.418012e-03 2.928198e-05   6.831726e-02 8.585000e+01 -3.265247e-03 8.091188e-04 -1.869677e-03 1.205290e-01 2.772287e-08 2.760707e-08 2.771456e-08 1.324277e-04 3.832404e-02 5.293251e-04 1.000000e+00  7.957747e-04  
-1.600000e+01  -8.000000e+00  -3.000000e+00  0  1213 0  -5.169343e-04 -4.626110e-04 -5.249783e-05   7.337540e-02 9.220625e+01 -2.998651e-03 -1.602441e-03 -1.866126e-03 1.213636e-01 2.786080e-08 2.791374e-08 2.777841e-08 2.803834e-04 3.766038e-02 5.821946e-04 1.000000e+00  7.957747e-04  
-1.500000e+01  -8.000000e+00  -3.000000e+00  0  1214 0  1.090427e-03 3.365557e-04 -2.235202e-03   7.391255e-02 9.288125e+01 -2.215207e-03 1.075058e-04 -1.262900e-03 1.206084e-01 2.778119e-08 2.766336e-08 2.780076e-08 2.536590e-04 3.861098e-02 -1.949859e-04 1.000000e+00  7.957747e-04  
-1.500000e+01  -7.000000e+00  -3.000000e+00  0  1233 0  1.283663e-03 7.200342e-04 1.023362e-03   7.463372e-02 9.378750e+01 -1.917464e-03 -1.124631e-03 -1.261085e-03 1.202123e-01 2.762866e-08 2.751675e-08 2.763971e-08 3.401229e-04 3.853714e-02 -2.373123e-04 1.000000e+00  7.957747e-04  
-1.600000e+01  -7.000000e+00  -3.000000e+00  0  1232 0  -1.328469e-03 -6.005392e-04 -3.415098e-04   7.282333e-02 9.151250e+01 -2.838699e-03 -1.436621e-03 -1.671114e-03 1.209608e-01 2.770243e-08 2.734112e-08 2.784209e-08 2.456060e-04 3.772330e-02 -6.920917e-05 1.000000e+00  7.957747e-04  
-1.400000e+01  -8.000000e+00  -4.000000e+00  0  1006 0  -2.101200e-03 -1.961075e-04 8.369010e-04   7.146057e-02 8.980000e+01 9.290624e-05 9.366691e-05 -1.074480e-03 1.216204e-01 2.818541e-08 2.811574e-08 2.817885e-08 -3.428782e-04 3.940261e-02 -6.337642e-04 1.000000e+00  7.957747e-04  
-1.400000e+01  -7.000000e+00  -4.000000e+00  0  1025 0  -1.614071e-03 9.075250e-04 2.172624e-03   7.571796e-02 9.515000e+01 -3.769583e-04 -4.877057e-05 -1.007946e-03 1.224114e-01 2.838646e-08 2.831218e-08 2.838211e-08 -3.060845e-04 3.908363e-02 -1.544878e-04 1.000000e+00  7.957747e-04  
-1.400000e+01  -8.000000e+00  -3.000000e+00  0  1215 0  -7.012258e-04 7.396833e-04 -2.885651e-03   7.381805e-02 9.276250e+01 -1.296534e-03 2.220930e-04 -7.164164e-04 1.198839e-01 2.734991e-08 2.710108e-08 2.743912e-08 1.677375e-04 3.920540e-02 -2.480150e-04 1.000000e+00  7.957747e-04  
-1.400000e+01  -7.000000e+00  -3.000000e+00  0  1234 0  2.036319e-03 -1.886327e-03 1.551908e-03   7.647892e-02 9.610625e+01 -1.437315e-03 4.865455e-04 -4.025933e-04 1.205209e-01 2.740947e-08 2.750954e-08 2.731691e-08 2.659124e-04 3.869581e-02 -1.037443e-04 1.000000e+00  7.957747e-04  
-1.300000e+01  -8.000000e+00  -4.000000e+00  0  2086 0  1.564920e-03 -9.854632e-04 -9.068380e-04   7.469340e-02 9.386250e+01 6.927190e-05 -1.842358e-03 -2.829319e-04 1.236025e-01 2.892239e-08 2.859564e-08 2.905997e-08 -1.031612e-04 4.009485e-02 1.130191e-04 1.000000e+00  7.957747e-04  
-1.300000e+01  -7.000000e+00  -4.000000e+00  0  2102 0  2.037782e-03 1.184527e-03 8.103102e-04   7.922932e-02 9.956250e+01 2.246929e-04 -1.277216e-03 -1.067259e-03 1.244250e-01 2.919064e-08 2.912257e-08 2.918112e-08 1.607160e-04 3.948879e-02 2.113975e-05 1.000000e+00  7.957747e-04  
-1.300000e+01  -8.000000e+00  -3.000000e+00  0  2262 0  1.339077e-03 2.851115e-03 -2.138022e-03   7.616061e-02 9.570625e+01 1.166886e-05 -8.873544e-04 -4.646201e-04 1.196225e-01 2.707166e-08 2.679665e-08 2.717670e-08 -9.875999e-05 3.971263e-02 5.017301e-04 1.000000e+00  7.957747e-04  
-1.300000e+01  -7.000000e+00  -3.000000e+00  0  2278 0  -1.227356e-03 -1.875936e-03 8.237046e-05   7.946308e-02 9.985625e+01 -3.185598e-05 -3.905268e-04 -7.228661e-04 1.215839e-01 2.803737e-08 2.796695e-08 2.802340e-08 1.630008e-04 3.967409e-02 3.319949e-04 1.000000e+00  7.957747e-04  
-1.200000e+01  -8.000000e+00  -4.000000e+00  0  2087 0  -2.492087e-04 -1.049063e-04 -1.352626e-03   7.644411e-02 9.606250e+01 4.523968e-04 -6.808972e-04 -3.111215e-04 1.235367e-01 2.906302e-08 2.881895e-08 2.913339e-08 -2.459380e-04 4.028171e-02 -1.704624e-04 1.000000e+00  7.957747e-04  
-1.200000e+01  -7.000000e+00  -4.000000e+00  0  2103 0  8.368390e-04 -9.867194e-04 3.925418e-04   7.522558e-02 9.453125e+01 7.077216e-04 -4.239855e-04 -3.899695e-04 1.234017e-01 2.903837e-08 2.890301e-08 2.905118e-08 -4.161642e-04 4.021554e-02 -2.268288e-04 1.000000e+00  7.957747e-04  
-1.200000e+01  -8.000000e+00  -3.000000e+00  0  2263 0  -1.978007e-03 -1.802650e-03 1.442142e-03   7.666295e-02 9.633750e+01 1.203169e-03 -3.674946e-04 1.622270e-04 1.192752e-01 2.735966e-08 2.717289e-08 2.739535e-08 2.471720e-04 4.028117e-02 1.071184e-04 1.000000e+00  7.957747e-04  
-1.200000e+01  -7.000000e+00  -3.000000e+00  0  2279 0  -2.130050e-03 -2.105159e-03 -1.777091e-04   7.873693e-02 9.894375e+01 1.410415e-03 -1.390324e-03 4.582345e-04 1.223087e-01 2.894173e-08 2.869682e-08 2.900268e-08 -7.694820e-05 4.048251e-02 -8.087471e-05 1.000000e+00  7.957747e-04  
-1.100000e+01  -8.000000e+00  -4.000000e+00  0  2088 0  1.465359e-03 -1.326417e-03 -1.788091e-03   7.633966e-02 9.593125e+01 2.241813e-03 6.477025e-04 -1.557532e-03 1.254428e-01 3.005522e-08 3.007526e-08 3.001107e-08 -5.298305e-04 4.105748e-02 -2.835388e-04 1.000000e+00  7.957747e-04  
-1.100000e+01  -7.000000e+00  -4.000000e+00  0  2104 0  2.926934e-03 -1.247698e-03 9.002231e-04   7.659829e-02 9.625625e+01 1.381278e-03 2.665714e-03 -8.529790e-04 1.245863e-01 2.974882e-08 2.986288e-08 2.966985e-08 -9.534312e-04 4.127153e-02 -4.076365e-04 1.000000e+00  7.957747e-04  
-1.100000e+01  -8.000000e+00  -3.000000e+00  0  2264 0  -1.214218e-03 -9.835825e-04 2.844532e-03   7.966700e-02 1.001125e+02 2.388655e-03 4.717966e-04 -1.160626e-03 1.243481e-01 2.986717e-08 2.972240e-08 2.988569e-08 7.755925e-04 4.146714e-02 -2.326532e-04 1.000000e+00  7.957747e-04  
-1.100000e+01  -7.000000e+00  -3.000000e+00  0  2280 0  -4.963831e-03 7.686475e-04 1.591040e-03   8.231295e-02 1.034375e+02 2.876383e-03 3.448004e-04 -1.030770e-03 1.252631e-01 3.033538e-08 3.022650e-08 3.033081e-08 -1.481404e-04 4.107597e-02 -4.761662e-04 1.000000e+00  7.957747e-04  
-1.000000e+01  -8.000000e+00  -4.000000e+00  0  2089 0  -2.131572e-03 7.744178e-04 1.585640e-03   7.882646e-02 9.905625e+01 3.905912e-03 -1.675414e-04 -1.438320e-03 1.271719e-01 3.090182e-08 3.112432e-08 3.076987e-08 -2.373821e-04 4.167104e-02 8.132743e-05 1.000000e+00  7.957747e-04  
-1.000000e+01  -7.000000e+00  -4.000000e+00  0  2105 0  3.408893e-03 2.003672e-03 -8.457282e-04   7.925419e-02 9.959375e+01 3.345901e-03 9.532039e-04 -1.437116e-03 1.286852e-01 3.148635e-08 3.178004e-08 3.132485e-08 -5.605793e-04 4.213350e-02 -3.811307e-04 1.000000e+00  7.957747e-04  
-1.000000e+01  -8.000000e+00  -3.000000e+00  0  2265 0  -8.321181e-04 5.816283e-04 -6.681449e-04   7.957250e-02 9.999375e+01 3.316887e-03 -3.110740e-04 -1.576192e-03 1.284412e-01 3.143973e-08 3.127197e-08 3.149487e-08 1.961232e-04 4.224336e-02 -7.782601e-05 1.000000e+00  7.957747e-04  
-1.000000e+01  -7.000000e+00  -3.000000e+00  0  2281 0  -1.612333e-03 -7.539944e-04 4.219634e-04   8.506832e-02 1.069000e+02 3.424540e-03 8.227671e-04 -1.898216e-03 1.272088e-01 3.083681e-08 3.080293e-08 3.083360e-08 1.657438e-04 4.214725e-02 -8.132691e-04 1.000000e+00  7.957747e-04  
-9.000000e+00  -8.000000e+00  -4.000000e+00  0  2090 0  2.388945e-03 1.126373e-03 -2.510699e-03   7.970181e-02 1.001562e+02 4.084552e-03 1.313478e-03 3.685280e-04 1.249515e-01 2.978756e-08 2.979829e-08 2.974705e-08 5.777538e-04 4.264835e-02 4.720857e-04 1.000000e+00  7.957747e-04  
-9.000000e+00  -7.000000e+00  -4.000000e+00  0  2106 0  -2.757699e-03 2.563912e-04 -2.254545e-03   7.839376e-02 9.851250e+01 4.440900e-03 -3.358723e-04 2.320166e-04 1.256827e-01 3.027696e-08 3.046996e-08 3.016636e-08 6.750180e-05 4.231909e-02 -4.741833e-04 1.000000e+00  7.957747e-04  
-9.000000e+00  -8.000000e+00  -3.000000e+00  0  2266 0  -1.359210e-05 8.326056e-04 1.398334e-03   7.570304e-02 9.513125e+01 3.714929e-03 8.153336e-04 3.050998e-04 1.278424e-01 3.087602e-08 3.023864e-08 3.117400e-08 -4.100820e-05 4.271995e-02 9.104564e-05 1.000000e+00  7.957747e-04  
-9.000000e+00  -7.000000e+00  -3.000000e+00  0  2282 0  1.374539e-03 -1.481155e-03 9.231443e-04   7.959239e-02 1.000187e+02 3.733544e-03 -2.114044e-04 -3.133209e-04 1.261193e-01 3.017549e-08 2.982101e-08 3.033312e-08 2.901839e-04 4.287025e-02 -1.019772e-03 1.000000e+00  7.957747e-04  
-8.000000e+00  -8.000000e+00  -4.000000e+00  0  2091 0  -4.101852e-03 2.529010e-03 -1.783651e-04   7.687681e-02 9.660625e+01 3.287828e-03 1.214221e-03 1.279184e-03 1.240498e-01 2.927631e-08 2.864037e-08 2.954692e-08 9.925724e-04 4.327589e-02 -1.749176e-04 1.000000e+00  7.957747e-04  
-8.000000e+00  -7.000000e+00  -4.000000e+00  0  2107 0  -3.843267e-03 1.228161e-03 -1.367791e-03   7.918953e-02 9.951250e+01 4.793636e-03 1.053776e-03 1.474262e-03 1.235129e-01 2.927289e-08 2.883411e-08 2.946159e-08 4.984842e-04 4.271457e-02 -2.944342e-04 1.000000e+00  7.957747e-04  
-8.000000e+00  -8.000000e+00  -3.000000e+00  0  2267 0  2.231247e-03 -6.315911e-04 1.417138e-03   7.842360e-02 9.855000e+01 4.510189e-03 4.967791e-04 5.615464e-05 1.262770e-01 3.019946e-08 2.932958e-08 3.058924e-08 2.952226e-04 4.355507e-02 3.345208e-04 1.000000e+00  7.957747e-04  
-8.000000e+00  -7.000000e+00  -3.000000e+00  0  2283 0  7.147028e-03 -1.327179e-03 8.820082e-04   8.153209e-02 1.024562e+02 4.935677e-03 3.025869e-04 9.438422e-04 1.250238e-01 2.985877e-08 2.932916e-08 3.009059e-08 7.236365e-05 4.345220e-02 1.695076e-06 1.000000e+00  7.957747e-04  
-7.000000e+00  -8.000000e+00  -4.000000e+00  0  2092 0  8.545021e-04 -2.274684e-05 7.757059e-04   7.619046e-02 9.574375e+01 4.297440e-03 -3.426184e-04 2.119519e-05 1.265239e-01 3.046534e-08 2.961315e-08 3.085158e-08 4.400090e-04 4.308114e-02 -3.484362e-04 1.000000e+00  7.957747e-04  
-7.000000e+00  -7.000000e+00  -4.000000e+00  0  2108 0  2.296751e-03 -8.247667e-04 1.621937e-03   8.219855e-02 1.032938e+02 5.020171e-03 1.451994e-04 8.650048e-04 1.262131e-01 3.026304e-08 2.945761e-08 3.063071e-08 3.810297e-04 4.315815e-02 1.149166e-04 1.000000e+00  7.957747e-04  
-7.000000e+00  -8.000000e+00  -3.000000e+00  0  2268 0  -3.302948e-03 -1.566817e-04 4.301638e-04   8.193495e-02 1.029625e+02 5.219570e-03 8.447981e-04 -2.118515e-04 1.248507e-01 2.951410e-08 2.880817e-08 2.981629e-08 5.605197e-07 4.323911e-02 2.249076e-04 1.000000e+00  7.957747e-04  
-7.000000e+00  -7.000000e+00  -3.000000e+00  0  2284 0  -6.008896e-04 5.678973e-04 -2.120045e-04   8.616251e-02 1.082750e+02 5.501434e-03 1.417942e-03 1.328785e-03 1.244640e-01 2.950410e-08 2.885779e-08 2.979493e-08 -4.382768e-04 4.335427e-02 6.833412e-04 1.000000e+00  7.957747e-04  
-6.000000e+00  -8.000000e+00  -4.000000e+00  0  2093 0  -2.828201e-04 -1.172292e-03 -1.828499e-03   7.834899e-02 9.845625e+01 5.133020e-03 -6.816719e-04 -4.153451e-04 1.270122e-01 3.074048e-08 2.988049e-08 3.113364e-08 3.641218e-05 4.389825e-02 5.647833e-04 1.000000e+00  7.957747e-04  
-6.000000e+00  -7.000000e+00  -4.000000e+00  0  2109 0  1.628472e-03 2.273145e-04 1.556588e-03   8.396915e-02 1.055187e+02 4.893548e-03 -1.131624e-03 9.542844e-05 1.265512e-01 3.042330e-08 2.960372e-08 3.080453e-08 -3.288342e-07 4.375272e-02 1.578561e-04 1.000000e+00  7.957747e-04  
-6.000000e+00  -8.000000e+00  -3.000000e+00  0  2269 0  2.082634e-04 -1.482905e-03 -2.254703e-03   8.314851e-02 1.044875e+02 5.596314e-03 -2.638093e-04 -1.007431e-03 1.245393e-01 2.932975e-08 2.821193e-08 2.985417e-08 -3.938860e-05 4.368216e-02 1.750595e-04 1.000000e+00  7.957747e-04  
-6.000000e+00  -7.000000e+00  -3.000000e+00  0  2285 0  -7.780356e-04 -1.257818e-03 1.001361e-03   8.703289e-02 1.093688e+02 5.508163e-03 -2.224030e-04 4.820790e-04 1.244316e-01 2.940993e-08 2.838404e-08 2.988266e-08 -4.135639e-04 4.332051e-02 5.210098e-04 1.000000e+00  7.957747e-04  
-5.000000e+00  -8.000000e+00  -4.000000e+00  0  2094 0  7.938700e-04 1.880925e-03 -1.435055e-03   8.100987e-02 1.018000e+02 5.202448e-03 -6.358022e-04 -8.491439e-04 1.259614e-01 3.020529e-08 2.928969e-08 3.059137e-08 2.316106e-04 4.431815e-02 -3.539930e-05 1.000000e+00  7.957747e-04  
-5.000000e+00  -7.000000e+00  -4.000000e+00  0  2110 0  1.611740e-03 3.305525e-04 2.250233e-04   8.179569e-02 1.027875e+02 5.250467e-03 9.713057e-05 -1.880029e-04 1.257639e-01 3.027505e-08 2.920628e-08 3.072125e-08 -2.795878e-04 4.386963e-02 1.766428e-04 1.000000e+00  7.957747e-04  
-5.000000e+00  -8.000000e+00  -3.000000e+00  0  2270 0  -8.174893e-06 8.987374e-04 1.717873e-03   8.164151e-02 1.025938e+02 5.053990e-03 1.382701e-03 -1.846912e-03 1.266632e-01 3.052262e-08 2.836818e-08 3.155618e-08 2.486912e-04 4.406259e-02 1.643779e-04 1.000000e+00  7.957747e-04  
-5.000000e+00  -7.000000e+00  -3.000000e+00  0  2286 0  -3.535474e-03 4.974584e-06 -2.170759e-04   8.544134e-02 1.073688e+02 5.464929e-03 1.443752e-03 -9.643778e-05 1.250973e-01 2.997675e-08 2.857153e-08 3.062270e-08 1.225368e-04 4.365984e-02 6.217785e-04 1.000000e+00  7.957747e-04  
-4.000000e+00  -8.000000e+00  -4.000000e+00  0  2095 0  1.931531e-03 3.060395e-05 7.118400e-04   8.100987e-02 1.018000e+02 5.456880e-03 -1.915337e-03 7.162929e-04 1.253767e-01 2.997383e-08 2.853906e-08 3.059246e-08 5.741855e-04 4.397089e-02 -5.873980e-04 1.000000e+00  7.957747e-04  
-4.000000e+00  -7.000000e+00  -4.000000e+00  0  2111 0  3.015347e-04 -3.159968e-03 2.205684e-03   8.000023e-02 1.005312e+02 5.628618e-03 -8.265393e-04 2.395693e-06 1.262176e-01 3.049246e-08 2.917455e-08 3.106216e-08 -2.464569e-04 4.373633e-02 1.426828e-04 1.000000e+00  7.957747e-04  
-4.000000e+00  -8.000000e+00  -3.000000e+00  0  2271 0  3.940406e-04 -3.073799e-03 1.327407e-03   8.076616e-02 1.014938e+02 4.333673e-03 2.662139e-03 9.458280e-04 1.278331e-01 3.118829e-08 2.882477e-08 3.233132e-08 -1.530702e-05 4.389026e-02 -1.731976e-04 1.000000e+00  7.957747e-04  
-4.000000e+00  -7.000000e+00  -3.000000e+00  0  2287 0  1.209489e-03 1.810127e-04 -2.512023e-03   8.419296e-02 1.058000e+02 5.341246e-03 1.228665e-03 -2.231689e-04 1.262439e-01 3.065590e-08 2.916512e-08 3.133282e-08 1.344801e-04 4.395252e-02 -1.650172e-05 1.000000e+00  7.957747e-04  
-3.000000e+00  -8.000000e+00  -4.000000e+00  0  2096 0  3.414797e-03 2.582056e-03 -1.681141e-03   7.933377e-02 9.969375e+01 5.789084e-03 -8.496599e-04 7.893572e-04 1.270976e-01 3.089201e-08 2.884382e-08 3.183477e-08 8.462729e-04 4.317799e-02 -1.594299e-04 1.000000e+00  7.957747e-04  
-3.000000e+00  -7.000000e+00  -4.000000e+00  0  2112 0  -8.380950e-05 -1.807990e-03 2.358634e-04   8.052743e-02 1.011937e+02 5.779463e-03 -3.843660e-04 -3.443221e-04 1.286021e-01 3.147229e-08 3.008668e-08 3.213042e-08 -1.589713e-04 4.329334e-02 -7.724185e-05 1.000000e+00  7.957747e-04  
-3.000000e+00  -8.000000e+00  -3.000000e+00  0  2272 0  -2.438711e-03 -2.599581e-04 -8.515998e-04   8.096510e-02 1.017438e+02 5.462757e-03 -1.146393e-03 1.499597e-03 1.282295e-01 3.108916e-08 2.886369e-08 3.216167e-08 7.439445e-05 4.369784e-02 1.657404e-04 1.000000e+00  7.957747e-04  
-3.000000e+00  -7.000000e+00  -3.000000e+00  0  2288 0  4.647237e-04 1.550846e-03 7.638680e-04   8.294459e-02 1.042313e+02 5.711587e-03 -1.817644e-03 -6.029474e-04 1.274958e-01 3.087519e-08 2.904548e-08 3.174867e-08 -1.313049e-04 4.341314e-02 -4.992620e-04 1.000000e+00  7.957747e-04  
-2.000000e+00  -8.000000e+00  -4.000000e+00  0  2097 0  9.396961e-04 -4.569952e-04 1.626397e-04   7.955758e-02 9.997500e+01 5.003484e-03 -5.611246e-04 2.430669e-04 1.286193e-01 3.135786e-08 3.009153e-08 3.193402e-08 8.420328e-04 4.245309e-02 4.566870e-04 1.000000e+00  7.957747e-04  
-2.000000e+00  -7.000000e+00  -4.000000e+00  0  2113 0  -3.625901e-04 8.958308e-04 -9.649785e-04   8.053240e-02 1.012000e+02 4.902244e-03 -9.178206e-04 -1.472560e-04 1.281992e-01 3.131222e-08 3.020721e-08 3.182400e-08 -7.846910e-05 4.260738e-02 -3.053912e-04 1.000000e+00  7.957747e-04  
-2.000000e+00  -8.000000e+00  -3.000000e+00  0  2273 0  1.206019e-05 -1.590607e-03 3.752556e-04   7.831915e-02 9.841875e+01 5.665396e-03 -1.660967e-05 3.243662e-04 1.286848e-01 3.113412e-08 2.960490e-08 3.184327e-08 5.866356e-04 4.363865e-02 5.311026e-04 1.000000e+00  7.957747e-04  
-2.000000e+00  -7.000000e+00  -3.000000e+00  0  2289 0  6.297752e-04 -7.529580e-04 1.292172e-04   7.883143e-02 9.906250e+01 5.344450e-03 6.653067e-04 6.748520e-05 1.267780e-01 3.046452e-08 2.912388e-08 3.107197e-08 -2.130760e-04 4.335001e-02 -4.859945e-04 1.000000e+00  7.957747e-04  
-1.000000e+00  -8.000000e+00  -4.000000e+00  0  2098 0  -2.830340e-03 -6.128494e-04 -1.904638e-04   8.036330e-02 1.009875e+02 3.805076e-03 -1.317652e-03 1.529896e-03 1.242436e-01 2.934117e-08 2.847277e-08 2.974306e-08 5.295689e-04 4.239483e-02 3.199262e-04 1.000000e+00  7.957747e-04  
-1.000000e+00  -7.000000e+00  -4.000000e+00  0  2114 0  -1.208782e-03 1.841675e-04 1.789799e-05   7.851810e-02 9.866875e+01 3.651747e-03 -7.422667e-04 1.023610e-03 1.239258e-01 2.935411e-08 2.824347e-08 2.986226e-08 -1.505537e-05 4.239788e-02 -7.948185e-05 1.000000e+00  7.957747e-04  
-1.000000e+00  -8.000000e+00  -3.000000e+00  0  2274 0  4.696901e-03 -9.352793e-04 -5.048129e-04   7.645406e-02 9.607500e+01 4.275196e-03 6.829505e-04 8.206107e-04 1.244747e-01 2.955529e-08 2.892345e-08 2.982647e-08 8.254160e-04 4.312324e-02 1.474155e-04 1.000000e+00  7.957747e-04  
-1.000000e+00  -7.000000e+00  -3.000000e+00  0  2290 0  3.960565e-04 2.075940e-03 -1.087695e-03   7.838381e-02 9.850000e+01 4.177703e-03 1.362910e-03 1.203028e-03 1.237870e-01 2.932463e-08 2.861077e-08 2.963709e-08 1.471229e-04 4.305474e-02 4.908232e-05 1.000000e+00  7.957747e-04  
0.000000e+00  -8.000000e+00  -4.000000e+00  0  2099 0  -1.232842e-03 -3.118249e-04 2.477960e-03   8.037325e-02 1.010000e+02 3.016009e-03 -8.329655e-04 4.667456e-04 1.199280e-01 2.740353e-08 2.540387e-08 2.838150e-08 1.301810e-04 4.264919e-02 -2.026368e-04 1.000000e+00  7.957747e-04  
0.000000e+00  -7.000000e+00  -4.000000e+00  0  2115 0  -2.107060e-03 -6.669149e-04 -1.251260e-03   7.791132e-02 9.790625e+01 3.036058e-03 6.013154e-04 8.340444e-04 1.214791e-01 2.794768e-08 2.710740e-08 2.833041e-08 -3.065138e-05 4.264250e-02 -1.589652e-04 1.000000e+00  7.957747e-04  
0.000000e+00  -8.000000e+00  -3.000000e+00  0  2275 0  -1.692112e-04 6.630412e-04 8.641662e-04   7.942329e-02 9.980625e+01 2.941817e-03 -2.008678e-04 -1.892994e-04 1.214112e-01 2.851414e-08 2.718397e-08 2.914256e-08 5.962043e-04 4.235935e-02 -1.938413e-04 1.000000e+00  7.957747e-04  
0.000000e+00  -7.000000e+00  -3.000000e+00  0  2291 0  -7.187647e-04 -8.374303e-04 3.735355e-03   8.153209e-02 1.024562e+02 3.370108e-03 1.748809e-04 5.061534e-04 1.217296e-01 2.851457e-08 2.800956e-08 2.874892e-08 5.399033e-04 4.243935e-02 1.197491e-04 1.000000e+00  7.957747e-04  
-1.500000e+01  -6.000000e+00  -4.000000e+00  0  1043 0  -1.689829e-03 -1.455219e-03 2.581982e-03   6.895388e-02 8.665000e+01 -1.950543e-03 -1.162961e-03 1.349684e-04 1.211770e-01 2.806261e-08 2.800802e-08 2.803582e-08 7.684244e-05 3.957190e-02 -1.766894e-04 1.000000e+00  7.957747e-04  
-1.600000e+01  -6.000000e+00  -4.000000e+00  0  1042 0  1.074558e-04 -1.436843e-04 1.491175e-03   6.856097e-02 8.615625e+01 -3.322125e-03 1.179485e-04 -5.949155e-04 1.192821e-01 2.725377e-08 2.725432e-08 2.720280e-08 -1.337022e-04 3.896240e-02 5.697932e-04 1.000000e+00  7.957747e-04  
-1.500000e+01  -6.000000e+00  -3.000000e+00  0  1252 0  1.762285e-03 -1.288500e-03 2.732008e-04   7.426070e-02 9.331875e+01 -2.114132e-03 -1.394444e-03 -5.472936e-04 1.206382e-01 2.772824e-08 2.795985e-08 2.757155e-08 6.337977e-04 3.874737e-02 -4.638938e-05 1.000000e+00  7.957747e-04  
-1.600000e+01  -6.000000e+00  -3.000000e+00  0  1251 0  2.328461e-03 2.511103e-05 1.081689e-03   7.149538e-02 8.984375e+01 -2.781090e-03 -9.808214e-04 -9.411893e-04 1.189035e-01 2.683332e-08 2.655652e-08 2.693859e-08 2.300670e-04 3.787570e-02 -4.063523e-05 1.000000e+00  7.957747e-04  
-1.400000e+01  -6.000000e+00  -4.000000e+00  0  1044 0  -1.247471e-03 8.402846e-04 -2.670373e-04   7.622527e-02 9.578750e+01 -8.874659e-04 1.010554e-03 -2.652838e-04 1.219829e-01 2.833176e-08 2.846165e-08 2.821097e-08 3.133302e-04 3.878393e-02 -3.260150e-04 1.000000e+00  7.957747e-04  
-1.400000e+01  -6.000000e+00  -3.000000e+00  0  1253 0  1.137347e-03 2.193029e-03 1.079732e-03   7.381805e-02 9.276250e+01 -1.365454e-03 2.921216e-04 1.149807e-04 1.224004e-01 2.822952e-08 2.876771e-08 2.790125e-08 3.412319e-04 3.841783e-02 1.326341e-04 1.000000e+00  7.957747e-04  
-1.300000e+01  -6.000000e+00  -4.000000e+00  0  2118 0  5.820373e-04 1.776917e-03 -2.143454e-03   7.966202e-02 1.001063e+02 3.838749e-04 -2.725684e-04 -1.533658e-03 1.238092e-01 2.884034e-08 2.885640e-08 2.876947e-08 3.429619e-04 3.952221e-02 -5.786829e-04 1.000000e+00  7.957747e-04  
-1.300000e+01  -6.000000e+00  -3.000000e+00  0  2294 0  -2.039141e-03 -3.220826e-03 -1.639955e-04   7.596664e-02 9.546250e+01 -1.016910e-04 1.554741e-04 -6.565768e-04 1.241282e-01 2.921088e-08 2.922702e-08 2.912285e-08 -1.554695e-04 3.923438e-02 -3.117743e-04 1.000000e+00  7.957747e-04  
-1.200000e+01  -6.000000e+00  -4.000000e+00  0  2119 0  6.597638e-04 2.054740e-03 -3.896921e-04   7.450938e-02 9.363125e+01 8.749225e-04 -4.772190e-04 -5.265210e-04 1.232852e-01 2.861955e-08 2.852351e-08 2.860527e-08 3.736341e-04 4.098795e-02 -6.022652e-04 1.000000e+00  7.957747e-04  
-1.200000e+01  -6.000000e+00  -3.000000e+00  0  2295 0  1.421169e-03 -4.155586e-04 -9.653088e-04   7.678231e-02 9.648750e+01 1.081638e-03 -3.073789e-04 -2.121774e-04 1.260288e-01 3.021961e-08 3.002290e-08 3.023743e-08 -2.982454e-04 4.029183e-02 -5.724869e-04 1.000000e+00  7.957747e-04  
-1.100000e+01  -6.000000e+00  -4.000000e+00  0  2120 0  -2.077420e-03 -1.067064e-03 6.587344e-04   7.526537e-02 9.458125e+01 1.311612e-03 2.602550e-03 -6.119545e-04 1.225064e-01 2.854946e-08 2.906547e-08 2.826572e-08 3.036416e-04 4.175220e-02 -2.692362e-04 1.000000e+00  7.957747e-04  
-1.100000e+01  -6.000000e+00  -3.000000e+00  0  2296 0  -2.353737e-03 9.676909e-05 -5.005747e-04   8.154701e-02 1.024750e+02 2.306901e-03 -2.974866e-04 -1.053153e-03 1.243999e-01 2.951197e-08 2.977250e-08 2.932520e-08 -4.235876e-04 4.059007e-02 -1.491434e-04 1.000000e+00  7.957747e-04  
-1.000000e+01  -6.000000e+00  -4.000000e+00  0  2121 0  -8.671336e-04 -6.549307e-04 -1.583819e-03   7.808539e-02 9.812500e+01 2.694711e-03 1.712053e-03 -8.578981e-04 1.275807e-01 3.076727e-08 3.117755e-08 3.054034e-08 4.658355e-05 4.255263e-02 -9.547425e-05 1.000000e+00  7.957747e-04  
-1.000000e+01  -6.000000e+00  -3.000000e+00  0  2297 0  -6.261420e-04 -1.813532e-04 1.556759e-03   8.724675e-02 1.096375e+02 2.961331e-03 1.552189e-03 -1.666771e-03 1.241428e-01 2.931258e-08 2.963812e-08 2.912482e-08 -2.484343e-04 4.162343e-02 -2.298173e-04 1.000000e+00  7.957747e-04  
-9.000000e+00  -6.000000e+00  -4.000000e+00  0  2122 0  -8.812848e-04 3.337710e-04 6.876855e-05   7.902540e-02 9.930625e+01 3.670911e-03 6.066331e-04 4.079860e-04 1.278884e-01 3.109793e-08 3.159397e-08 3.082980e-08 -2.867267e-04 4.279993e-02 -2.747427e-04 1.000000e+00  7.957747e-04  
-9.000000e+00  -6.000000e+00  -3.000000e+00  0  2298 0  -2.497378e-04 2.074723e-03 3.566581e-03   8.354142e-02 1.049813e+02 3.363418e-03 5.776260e-04 -4.313574e-04 1.253752e-01 2.987141e-08 3.008951e-08 2.973134e-08 2.036723e-04 4.276074e-02 -3.006354e-04 1.000000e+00  7.957747e-04  
-8.000000e+00  -6.000000e+00  -4.000000e+00  0  2123 0  1.200907e-03 -1.111184e-03 -2.589488e-03   8.185040e-02 1.028563e+02 4.662481e-03 8.073194e-04 8.960787e-04 1.268996e-01 3.080169e-08 3.117287e-08 3.058418e-08 -3.092469e-04 4.299019e-02 1.740861e-04 1.000000e+00  7.957747e-04  
-8.000000e+00  -6.000000e+00  -3.000000e+00  0  2299 0  -1.280151e-03 -2.915307e-04 -1.315967e-03   8.231792e-02 1.034437e+02 4.584599e-03 4.355430e-05 9.801019e-04 1.265565e-01 3.061125e-08 3.076251e-08 3.049978e-08 -3.315051e-05 4.330469e-02 -3.812080e-06 1.000000e+00  7.957747e-04  
-7.000000e+00  -6.000000e+00  -4.000000e+00  0  2124 0  4.206302e-03 1.647834e-03 -4.485672e-04   8.338724e-02 1.047875e+02 5.308533e-03 6.131581e-04 -3.529938e-04 1.270301e-01 3.066882e-08 3.023903e-08 3.084069e-08 2.141435e-05 4.328060e-02 8.148221e-04 1.000000e+00  7.957747e-04  
-7.000000e+00  -6.000000e+00  -3.000000e+00  0  2300 0  -3.781124e-03 -1.632287e-03 -2.226814e-03   8.303412e-02 1.043438e+02 5.350179e-03 1.578701e-03 5.012621e-04 1.277595e-01 3.108471e-08 3.069932e-08 3.123969e-08 -2.932634e-04 4.370530e-02 8.413088e-05 1.000000e+00  7.957747e-04  
-6.000000e+00  -6.000000e+00  -4.000000e+00  0  2125 0  3.011787e-03 1.343433e-03 -2.773692e-04   8.419296e-02 1.058000e+02 4.758042e-03 -4.008717e-04 -4.000223e-04 1.267495e-01 3.045348e-08 2.958992e-08 3.086147e-08 1.877382e-04 4.339086e-02 3.579466e-04 1.000000e+00  7.957747e-04  
-6.000000e+00  -6.000000e+00  -3.000000e+00  0  2301 0  -2.620441e-03 -1.793374e-03 -2.510846e-03   8.492906e-02 1.067250e+02 4.726409e-03 -3.953738e-05 9.481901e-04 1.266393e-01 3.043410e-08 2.959624e-08 3.081537e-08 -6.376600e-04 4.333741e-02 5.632512e-04 1.000000e+00  7.957747e-04  
-5.000000e+00  -6.000000e+00  -4.000000e+00  0  2126 0  -9.393501e-05 4.195718e-04 -4.848196e-04   8.170617e-02 1.026750e+02 4.894882e-03 1.830189e-03 6.676274e-04 1.258765e-01 3.043392e-08 2.914632e-08 3.100248e-08 2.006783e-04 4.348803e-02 8.910735e-04 1.000000e+00  7.957747e-04  
-5.000000e+00  -6.000000e+00  -3.000000e+00  0  2302 0  2.473538e-03 2.375953e-03 1.323429e-03   8.608790e-02 1.081813e+02 5.401766e-03 1.716898e-03 1.237644e-03 1.244692e-01 2.967919e-08 2.884271e-08 3.002818e-08 -7.345158e-04 4.322229e-02 8.686474e-04 1.000000e+00  7.957747e-04  
-4.000000e+00  -6.000000e+00  -4.000000e+00  0  2127 0  5.584704e-04 7.179605e-04 -9.181312e-04   8.044785e-02 1.010938e+02 5.019134e-03 2.996325e-04 1.029195e-04 1.241327e-01 2.982366e-08 2.876351e-08 3.020084e-08 1.364776e-04 4.402079e-02 8.866315e-04 1.000000e+00  7.957747e-04  
-4.000000e+00  -6.000000e+00  -3.000000e+00  0  2303 0  -2.479188e-03 6.665644e-04 -7.011902e-04   8.616251e-02 1.082750e+02 6.179246e-03 9.778691e-04 -8.664088e-04 1.240715e-01 2.967554e-08 2.892285e-08 2.995559e-08 1.349910e-04 4.405649e-02 2.034350e-04 1.000000e+00  7.957747e-04  
-3.000000e+00  -6.000000e+00  -4.000000e+00  0  2128 0  1.560071e-03 1.765559e-03 1.783208e-03   8.078605e-02 1.015187e+02 4.244668e-03 -2.931146e-04 -2.563106e-04 1.262208e-01 3.043294e-08 2.964739e-08 3.073646e-08 1.233116e-05 4.404507e-02 -3.590492e-04 1.000000e+00  7.957747e-04  
-3.000000e+00  -6.000000e+00  -3.000000e+00  0  2304 0  6.657400e-04 1.268935e-03 6.598305e-05   8.320819e-02 1.045625e+02 4.882184e-03 -1.509193e-03 -4.095079e-04 1.251228e-01 2.977071e-08 2.868350e-08 3.025021e-08 1.089509e-04 4.384937e-02 -3.425521e-04 1.000000e+00  7.957747e-04  
-2.000000e+00  -6.000000e+00  -4.000000e+00  0  2129 0  -2.411486e-03 -3.476201e-04 -3.439559e-03   7.787153e-02 9.785625e+01 4.139351e-03 4.103623e-04 -5.044007e-04 1.271924e-01 3.081579e-08 2.958800e-08 3.140316e-08 -2.422888e-04 4.317306e-02 -7.526224e-04 1.000000e+00  7.957747e-04  
-2.000000e+00  -6.000000e+00  -3.000000e+00  0  2305 0  3.661355e-03 -1.516678e-04 7.285613e-04   7.739904e-02 9.726250e+01 3.698705e-03 -4.448126e-04 5.038093e-04 1.235744e-01 2.911072e-08 2.860210e-08 2.931374e-08 -6.910743e-04 4.326852e-02 -7.827257e-04 1.000000e+00  7.957747e-04  
-1.000000e+00  -6.000000e+00  -4.000000e+00  0  2130 0  8.552105e-04 -2.447341e-04 2.419989e-04   7.597659e-02 9.547500e+01 3.269017e-03 4.381106e-04 8.822119e-04 1.244965e-01 2.956812e-08 2.859301e-08 2.999717e-08 -6.012340e-04 4.241861e-02 -7.164689e-05 1.000000e+00  7.957747e-04  
-1.000000e+00  -6.000000e+00  -3.000000e+00  0  2306 0  1.664337e-03 9.800308e-04 -1.498670e-03   7.696634e-02 9.671875e+01 3.558215e-03 -5.459266e-04 6.547491e-04 1.223411e-01 2.871679e-08 2.834212e-08 2.886580e-08 -7.180256e-04 4.319621e-02 -6.736091e-04 1.000000e+00  7.957747e-04  
0.000000e+00  -6.000000e+00  -4.000000e+00  0  2131 0  -8.272894e-04 -6.525657e-04 -3.196406e-03   7.565828e-02 9.507500e+01 3.218956e-03 -4.059994e-04 1.291033e-03 1.216958e-01 2.804893e-08 2.858991e-08 2.769251e-08 -7.902742e-04 4.230762e-02 7.485655e-04 1.000000e+00  7.957747e-04  
0.000000e+00  -6.000000e+00  -3.000000e+00  0  2307 0  -4.888189e-04 -2.579965e-04 4.762812e-04   7.950287e-02 9.990625e+01 3.522470e-03 -2.440754e-04 4.215341e-04 1.210251e-01 2.805108e-08 2.800670e-08 2.803740e-08 -3.630546e-04 4.285524e-02 1.569145e-04 1.000000e+00  7.957747e-04  
-1.500000e+01  -5.000000e+00  -4.000000e+00  0  2935 0  6.196488e-04 1.967933e-03 -5.447143e-05   7.159983e-02 8.997500e+01 -2.969519e-03 -6.600553e-04 3.348742e-04 1.192488e-01 2.701638e-08 2.735877e-08 2.674939e-08 3.405538e-04 3.856372e-02 3.932588e-05 1.000000e+00  7.957747e-04  