VARIABLES="X", "Y", "Z", "Maximum Refinment Level", "Temp_ID", "Thread","Ex (corner node)","Ey (corner node)","Ez (corner node)", "Number Density[1/m^3]", "Particle Number", "Vx [m/s]", "Vy [m/s]", "Vz [m/s]", "|V| [m/s]", "Translational Temperature [K]", "Parallel Translational Temperature [K]", "Tangential Translational Temperature [K]","Bx (center node)","By (center node)","Bz (center node)", "Local Time Step" , "log10(Local Particle Weight)" 
ZONE N=5049, E=4096, DATAPACKING=POINT, ZONETYPE=FEBRICK
-1.600000e+01  -8.000000e+00  -4.000000e+00  0  1004 0  -2.496809e-03 4.327814e-06 5.171637e-04   6.950595e-02 8.734375e+01 -3.338797e-03 -3.762969e-04 4.536353e-04 1.166388e-01 2.611488e-08 2.555475e-08 2.634015e-08 1.792904e-05 3.842229e-02 -5.841407e-04 1.000000e+00  7.957747e-04  
-1.500000e+01  -8.000000e+00  -4.000000e+00  0  1005 0  1.445517e-03 1.097818e-03 -5.901210e-05   6.981431e-02 8.773125e+01 -1.791124e-03 3.159222e-04 1.567895e-04 1.188208e-01 2.686039e-08 2.655904e-08 2.696329e-08 8.303358e-05 3.877384e-02 -4.331706e-04 1.000000e+00  7.957747e-04  
-1.500000e+01  -7.000000e+00  -4.000000e+00  0  1024 0  6.332551e-04 -1.138185e-04 6.631841e-04   7.289296e-02 9.160000e+01 -1.969238e-03 4.057933e-04 -6.355750e-05 1.183717e-01 2.676943e-08 2.666810e-08 2.678246e-08 4.276360e-04 3.884691e-02 -3.748590e-04 1.000000e+00  7.957747e-04  
-1.600000e+01  -7.000000e+00  -4.000000e+00  0  1023 0  1.116398e-03 5.796095e-04 2.780720e-04   7.086374e-02 8.905000e+01 -3.370042e-03 9.660343e-04 -4.746516e-04 1.180395e-01 2.640112e-08 2.593774e-08 2.660112e-08 1.407539e-04 3.827105e-02 -3.656549e-04 1.000000e+00  7.957747e-04  
-1.600000e+01  -8.000000e+00  -3.000000e+00  0  1213 0  3.840319e-03 6.300768e-04 4.921524e-04   7.012267e-02 8.811875e+01 -1.921729e-03 1.979077e-04 5.088593e-05 1.167766e-01 2.622238e-08 2.522707e-08 2.669232e-08 -2.903976e-04 3.781585e-02 -7.782365e-04 1.000000e+00  7.957747e-04  
-1.500000e+01  -8.000000e+00  -3.000000e+00  0  1214 0  -1.483055e-03 2.761146e-04 3.131746e-03   7.266418e-02 9.131250e+01 -1.021407e-03 2.412391e-04 -3.405614e-04 1.179392e-01 2.663971e-08 2.608600e-08 2.687150e-08 -1.996889e-04 3.854062e-02 -2.650850e-04 1.000000e+00  7.957747e-04  
-1.500000e+01  -7.000000e+00  -3.000000e+00  0  1233 0  -8.279563e-04 8.271543e-05 1.179368e-03   7.291783e-02 9.163125e+01 -1.474108e-03 2.792783e-04 -5.558190e-04 1.199852e-01 2.755137e-08 2.756775e-08 2.750685e-08 -4.651337e-04 3.842803e-02 -3.669969e-04 1.000000e+00  7.957747e-04  
-1.600000e+01  -7.000000e+00  -3.000000e+00  0  1232 0  -4.335390e-04 1.265361e-03 1.543325e-03   7.061009e-02 8.873125e+01 -2.512273e-03 2.497561e-04 2.432943e-05 1.181939e-01 2.662086e-08 2.599480e-08 2.690661e-08 -4.656226e-04 3.760682e-02 -3.908925e-04 1.000000e+00  7.957747e-04  
-1.400000e+01  -8.000000e+00  -4.000000e+00  0  1006 0  -5.781325e-04 -6.530791e-04 2.140261e-04   7.237571e-02 9.095000e+01 -2.336964e-05 -1.722322e-04 -1.487639e-03 1.226391e-01 2.854049e-08 2.856459e-08 2.842898e-08 -2.579791e-04 3.940036e-02 -2.783436e-04 1.000000e+00  7.957747e-04  
-1.400000e+01  -7.000000e+00  -4.000000e+00  0  1025 0  1.149032e-03 2.786179e-04 1.236519e-03   7.412641e-02 9.315000e+01 -2.238944e-04 1.190614e-04 -1.303293e-03 1.225884e-01 2.865300e-08 2.885095e-08 2.850438e-08 3.222136e-04 3.933612e-02 -4.090272e-04 1.000000e+00  7.957747e-04  
-1.400000e+01  -8.000000e+00  -3.000000e+00  0  1215 0  -1.106610e-03 -1.273667e-04 3.703975e-04   7.313667e-02 9.190625e+01 -3.444985e-04 2.040285e-03 -9.466963e-04 1.213899e-01 2.822147e-08 2.830485e-08 2.811482e-08 -1.623571e-04 3.961218e-02 -1.347028e-04 1.000000e+00  7.957747e-04  
-1.400000e+01  -7.000000e+00  -3.000000e+00  0  1234 0  -2.088608e-03 1.923875e-03 2.230665e-04   7.453425e-02 9.366250e+01 -4.777971e-04 7.060715e-04 -1.875241e-03 1.241216e-01 2.927240e-08 2.965971e-08 2.904828e-08 -3.179226e-04 3.948938e-02 -2.401509e-04 1.000000e+00  7.957747e-04  
-1.300000e+01  -8.000000e+00  -4.000000e+00  0  2295 0  -3.629021e-04 -9.600904e-04 -4.930897e-04   7.639437e-02 9.600000e+01 1.458570e-03 -5.992506e-04 -8.788344e-04 1.218549e-01 2.839999e-08 2.833282e-08 2.834198e-08 -4.220216e-04 3.998287e-02 -6.415978e-04 1.000000e+00  7.957747e-04  
-1.300000e+01  -7.000000e+00  -4.000000e+00  0  2311 0  2.545343e-04 4.895215e-04 -5.656197e-04   7.626009e-02 9.583125e+01 8.158391e-04 6.417911e-05 -1.227308e-03 1.229678e-01 2.886985e-08 2.899300e-08 2.876219e-08 2.769725e-04 3.968448e-02 -2.473580e-04 1.000000e+00  7.957747e-04  
-1.300000e+01  -8.000000e+00  -3.000000e+00  0  2471 0  4.748105e-05 1.863011e-03 3.740634e-04   7.569310e-02 9.511875e+01 2.564222e-04 1.053927e-03 -4.716702e-04 1.228187e-01 2.889905e-08 2.909619e-08 2.873890e-08 -4.926406e-04 4.050092e-02 -5.661561e-04 1.000000e+00  7.957747e-04  
-1.300000e+01  -7.000000e+00  -3.000000e+00  0  2487 0  2.024225e-03 -1.853914e-03 1.709373e-03   7.644908e-02 9.606875e+01 1.054777e-04 8.544741e-04 -1.452705e-03 1.241783e-01 2.913815e-08 2.955402e-08 2.890657e-08 4.892584e-05 4.043611e-02 8.765402e-05 1.000000e+00  7.957747e-04  
-1.200000e+01  -8.000000e+00  -4.000000e+00  0  2296 0  -8.930143e-04 1.919434e-04 2.336393e-04   7.615564e-02 9.570000e+01 1.950994e-03 -1.717093e-03 -2.938234e-04 1.207469e-01 2.777817e-08 2.768032e-08 2.778286e-08 -3.607616e-04 4.101392e-02 -1.108470e-04 1.000000e+00  7.957747e-04  
-1.200000e+01  -7.000000e+00  -4.000000e+00  0  2312 0  1.014455e-03 -7.942435e-04 4.673594e-04   7.348979e-02 9.235000e+01 1.332163e-03 -1.054132e-03 -1.043830e-03 1.215321e-01 2.820257e-08 2.807189e-08 2.820963e-08 1.530961e-04 4.075871e-02 -1.673137e-04 1.000000e+00  7.957747e-04  
-1.200000e+01  -8.000000e+00  -3.000000e+00  0  2472 0  -5.461355e-04 -9.588960e-04 -3.170092e-04   7.559362e-02 9.499375e+01 1.205547e-03 -1.515939e-03 1.809555e-04 1.231667e-01 2.907459e-08 2.915958e-08 2.901131e-08 -6.715772e-04 4.113243e-02 1.741021e-04 1.000000e+00  7.957747e-04  
-1.200000e+01  -7.000000e+00  -3.000000e+00  0  2488 0  5.866352e-04 -2.206621e-04 -4.520766e-04   7.548421e-02 9.485625e+01 1.413500e-03 1.024575e-04 -5.864263e-04 1.224363e-01 2.881998e-08 2.913133e-08 2.864003e-08 2.768430e-04 4.077875e-02 1.230281e-04 1.000000e+00  7.957747e-04  
-1.100000e+01  -8.000000e+00  -4.000000e+00  0  2297 0  1.721652e-04 -4.082008e-04 8.493932e-04   7.687184e-02 9.660000e+01 2.062693e-03 3.944641e-04 1.043644e-04 1.238525e-01 2.916307e-08 2.898442e-08 2.919366e-08 -2.934578e-04 4.145891e-02 4.076752e-04 1.000000e+00  7.957747e-04  
-1.100000e+01  -7.000000e+00  -4.000000e+00  0  2313 0  -2.875978e-03 3.511099e-04 -3.092123e-04   7.455912e-02 9.369375e+01 1.969057e-03 1.274358e-04 -7.100738e-04 1.239500e-01 2.907943e-08 2.921605e-08 2.893007e-08 2.928535e-04 4.171232e-02 -2.734018e-04 1.000000e+00  7.957747e-04  
-1.100000e+01  -8.000000e+00  -3.000000e+00  0  2473 0  -1.438994e-03 -8.853625e-04 -2.866158e-04   7.697131e-02 9.672500e+01 2.689688e-03 1.378029e-03 -3.421512e-05 1.251934e-01 2.987734e-08 2.975062e-08 2.991218e-08 -3.025691e-04 4.130301e-02 2.043393e-04 1.000000e+00  7.957747e-04  
-1.100000e+01  -7.000000e+00  -3.000000e+00  0  2489 0  2.417291e-03 -2.190180e-04 -8.025282e-04   7.782179e-02 9.779375e+01 2.957699e-03 7.698296e-04 -5.589385e-04 1.242009e-01 2.958886e-08 2.984323e-08 2.943414e-08 2.101098e-04 4.092386e-02 -4.200538e-04 1.000000e+00  7.957747e-04  
-1.000000e+01  -8.000000e+00  -4.000000e+00  0  2298 0  2.738692e-03 -2.544343e-04 -1.500554e-03   8.157188e-02 1.025062e+02 2.989980e-03 2.013402e-03 -8.425219e-04 1.246587e-01 2.970266e-08 2.963917e-08 2.970925e-08 -4.250568e-05 4.183294e-02 7.496598e-05 1.000000e+00  7.957747e-04  
-1.000000e+01  -7.000000e+00  -4.000000e+00  0  2314 0  -2.704897e-03 3.164104e-05 -4.565451e-04   8.079600e-02 1.015312e+02 2.843408e-03 1.966411e-03 -1.068857e-03 1.240203e-01 2.912386e-08 2.933051e-08 2.898809e-08 1.504124e-04 4.201025e-02 1.202941e-04 1.000000e+00  7.957747e-04  
-1.000000e+01  -8.000000e+00  -3.000000e+00  0  2474 0  -2.732231e-03 1.328715e-03 9.812869e-04   8.041801e-02 1.010563e+02 3.601793e-03 1.303109e-03 -5.313555e-04 1.256535e-01 3.007614e-08 2.991042e-08 3.010588e-08 2.191229e-04 4.210888e-02 1.099065e-04 1.000000e+00  7.957747e-04  
-1.000000e+01  -7.000000e+00  -3.000000e+00  0  2490 0  3.089172e-03 -3.204070e-04 3.391479e-04   8.322809e-02 1.045875e+02 3.595547e-03 1.565750e-04 -5.747087e-04 1.265937e-01 3.030090e-08 3.037849e-08 3.021333e-08 -1.099699e-04 4.180132e-02 3.812045e-04 1.000000e+00  7.957747e-04  
-9.000000e+00  -8.000000e+00  -4.000000e+00  0  2299 0  -1.185779e-03 -4.071058e-04 4.954141e-04   8.238755e-02 1.035312e+02 2.887895e-03 3.511608e-04 -9.087312e-04 1.259800e-01 3.000753e-08 3.002272e-08 2.996399e-08 -5.168153e-05 4.294201e-02 -6.880156e-04 1.000000e+00  7.957747e-04  
-9.000000e+00  -7.000000e+00  -4.000000e+00  0  2315 0  1.668586e-03 9.677124e-04 8.698370e-05   8.009473e-02 1.006500e+02 3.043851e-03 -1.774128e-06 -7.948920e-04 1.237934e-01 2.905483e-08 2.904262e-08 2.903808e-08 8.499737e-05 4.272632e-02 -4.375048e-06 1.000000e+00  7.957747e-04  
-9.000000e+00  -8.000000e+00  -3.000000e+00  0  2475 0  4.667190e-05 -1.041404e-03 -1.397864e-03   8.100987e-02 1.018000e+02 3.975408e-03 -1.597357e-03 -4.203524e-04 1.262382e-01 3.024290e-08 3.023144e-08 3.020152e-08 2.471392e-04 4.290230e-02 -5.348445e-04 1.000000e+00  7.957747e-04  
-9.000000e+00  -7.000000e+00  -3.000000e+00  0  2491 0  -2.379789e-03 -1.565195e-04 9.937397e-04   8.268597e-02 1.039062e+02 3.907809e-03 -1.575050e-03 2.303086e-04 1.275889e-01 3.080061e-08 3.089552e-08 3.071523e-08 1.110190e-04 4.254385e-02 7.658623e-05 1.000000e+00  7.957747e-04  
-8.000000e+00  -8.000000e+00  -4.000000e+00  0  2300 0  -2.400936e-03 2.782078e-03 7.348039e-04   7.791629e-02 9.791250e+01 2.563047e-03 -5.868472e-04 -3.498864e-04 1.289252e-01 3.151773e-08 3.097572e-08 3.172960e-08 1.376368e-04 4.324182e-02 -6.840240e-04 1.000000e+00  7.957747e-04  
-8.000000e+00  -7.000000e+00  -4.000000e+00  0  2316 0  -7.979547e-04 -1.197574e-03 -3.487038e-04   7.598156e-02 9.548125e+01 3.622158e-03 -4.587251e-04 -5.593635e-04 1.247810e-01 2.984860e-08 2.926893e-08 3.010624e-08 3.594778e-04 4.327560e-02 -4.009320e-04 1.000000e+00  7.957747e-04  
-8.000000e+00  -8.000000e+00  -3.000000e+00  0  2476 0  1.598785e-03 -5.760454e-04 9.459852e-04   8.067166e-02 1.013750e+02 4.187842e-03 -1.665760e-05 -1.733166e-04 1.271170e-01 3.067839e-08 3.036762e-08 3.079705e-08 -1.203689e-04 4.301510e-02 -6.526728e-04 1.000000e+00  7.957747e-04  
-8.000000e+00  -7.000000e+00  -3.000000e+00  0  2492 0  7.021985e-04 6.645473e-05 4.353511e-04   8.176088e-02 1.027438e+02 4.692767e-03 -4.232400e-04 6.708719e-04 1.267679e-01 3.073005e-08 3.054691e-08 3.080116e-08 1.487769e-04 4.291811e-02 -1.631061e-04 1.000000e+00  7.957747e-04  
-7.000000e+00  -8.000000e+00  -4.000000e+00  0  2301 0  3.032441e-03 -2.075183e-03 1.682582e-03   7.715533e-02 9.695625e+01 3.671088e-03 -6.782525e-05 -4.988614e-04 1.278845e-01 3.156160e-08 3.115973e-08 3.169118e-08 3.793319e-04 4.303682e-02 3.487596e-06 1.000000e+00  7.957747e-04  
-7.000000e+00  -7.000000e+00  -4.000000e+00  0  2317 0  2.772392e-03 -1.453293e-04 1.060866e-03   7.853302e-02 9.868750e+01 3.881186e-03 -3.133246e-04 -2.936915e-04 1.250047e-01 3.039812e-08 3.017464e-08 3.046889e-08 9.332293e-05 4.333766e-02 -7.311079e-06 1.000000e+00  7.957747e-04  
-7.000000e+00  -8.000000e+00  -3.000000e+00  0  2477 0  -6.530088e-04 -2.088327e-03 1.444982e-04   8.036330e-02 1.009875e+02 4.948472e-03 -1.056023e-04 2.936852e-04 1.277514e-01 3.147895e-08 3.089197e-08 3.173014e-08 -2.653378e-04 4.331421e-02 -2.829072e-04 1.000000e+00  7.957747e-04  
-7.000000e+00  -7.000000e+00  -3.000000e+00  0  2493 0  -9.574940e-04 1.844658e-04 -1.938479e-03   8.409349e-02 1.056750e+02 4.953983e-03 3.391584e-04 3.944175e-04 1.260729e-01 3.089462e-08 3.065127e-08 3.097923e-08 -1.646369e-04 4.335246e-02 2.168669e-04 1.000000e+00  7.957747e-04  
-6.000000e+00  -8.000000e+00  -4.000000e+00  0  2302 0  1.761725e-03 8.951752e-05 -2.251962e-03   8.043790e-02 1.010812e+02 5.159194e-03 6.029818e-05 1.195658e-04 1.271827e-01 3.085146e-08 3.097964e-08 3.074492e-08 3.108501e-04 4.323253e-02 1.801824e-04 1.000000e+00  7.957747e-04  
-6.000000e+00  -7.000000e+00  -4.000000e+00  0  2318 0  3.596498e-03 1.641581e-03 3.801697e-04   8.501361e-02 1.068312e+02 4.237054e-03 -2.449077e-04 4.775255e-04 1.267940e-01 3.084674e-08 3.086875e-08 3.080796e-08 -1.607130e-04 4.335809e-02 -3.046924e-04 1.000000e+00  7.957747e-04  
-6.000000e+00  -8.000000e+00  -3.000000e+00  0  2478 0  -4.258639e-04 1.942794e-03 -1.197231e-03   8.122870e-02 1.020750e+02 5.271621e-03 -4.106671e-04 -1.548115e-04 1.292716e-01 3.189948e-08 3.062078e-08 3.249582e-08 1.380878e-04 4.374457e-02 -6.250707e-04 1.000000e+00  7.957747e-04  
-6.000000e+00  -7.000000e+00  -3.000000e+00  0  2494 0  -4.273453e-03 -1.900092e-03 -1.673236e-04   8.449138e-02 1.061750e+02 5.058891e-03 8.337581e-04 1.663128e-04 1.281186e-01 3.150403e-08 3.068923e-08 3.187544e-08 2.380509e-04 4.356012e-02 -2.010161e-04 1.000000e+00  7.957747e-04  
-5.000000e+00  -8.000000e+00  -4.000000e+00  0  2303 0  -1.035651e-03 5.624046e-04 -1.662544e-03   7.753830e-02 9.743750e+01 5.704817e-03 5.035690e-04 5.168777e-06 1.256180e-01 2.984239e-08 2.974827e-08 2.986776e-08 6.012052e-04 4.380182e-02 -1.807226e-05 1.000000e+00  7.957747e-04  
-5.000000e+00  -7.000000e+00  -4.000000e+00  0  2319 0  -7.515030e-04 2.459683e-04 -6.280797e-04   8.093029e-02 1.017000e+02 4.934481e-03 8.038436e-04 -1.135088e-04 1.270474e-01 3.067384e-08 3.026401e-08 3.085620e-08 -3.676916e-04 4.370041e-02 -5.916736e-04 1.000000e+00  7.957747e-04  
-5.000000e+00  -8.000000e+00  -3.000000e+00  0  2479 0  2.543904e-04 -5.840522e-04 2.833575e-03   8.244723e-02 1.036063e+02 5.029307e-03 1.133480e-03 -6.470479e-04 1.261142e-01 3.007943e-08 2.893420e-08 3.063201e-08 5.249894e-04 4.369384e-02 -4.407493e-04 1.000000e+00  7.957747e-04  
-5.000000e+00  -7.000000e+00  -3.000000e+00  0  2495 0  1.087312e-03 1.186299e-03 2.000401e-04   8.546620e-02 1.074000e+02 5.259727e-03 1.251281e-03 -1.997428e-04 1.263131e-01 3.037020e-08 2.931414e-08 3.088062e-08 3.860145e-04 4.366524e-02 1.032426e-04 1.000000e+00  7.957747e-04  
-4.000000e+00  -8.000000e+00  -4.000000e+00  0  2304 0  -1.321151e-03 -1.121322e-03 1.866882e-04   7.581246e-02 9.526875e+01 5.335431e-03 -1.362497e-03 -5.192178e-04 1.232038e-01 2.885806e-08 2.863360e-08 2.892184e-08 9.728551e-04 4.410505e-02 6.375902e-04 1.000000e+00  7.957747e-04  
-4.000000e+00  -7.000000e+00  -4.000000e+00  0  2320 0  -3.618997e-04 -3.376065e-04 -7.653715e-04   7.886625e-02 9.910625e+01 5.313308e-03 -7.462434e-04 -2.066149e-04 1.251100e-01 2.984850e-08 2.932987e-08 3.007312e-08 -3.330654e-04 4.398162e-02 1.606211e-04 1.000000e+00  7.957747e-04  
-4.000000e+00  -8.000000e+00  -3.000000e+00  0  2480 0  -1.532854e-03 -4.235701e-04 -7.566080e-04   8.275560e-02 1.039938e+02 4.710441e-03 -1.492231e-04 -2.004331e-04 1.221790e-01 2.828082e-08 2.801037e-08 2.840418e-08 4.336639e-04 4.379859e-02 1.978914e-04 1.000000e+00  7.957747e-04  
-4.000000e+00  -7.000000e+00  -3.000000e+00  0  2496 0  9.697077e-04 9.570096e-04 3.888838e-04   8.490916e-02 1.067000e+02 4.619758e-03 -1.438009e-04 -8.970919e-05 1.232322e-01 2.898106e-08 2.850961e-08 2.918855e-08 -1.555391e-04 4.423299e-02 3.737305e-04 1.000000e+00  7.957747e-04  
-3.000000e+00  -8.000000e+00  -4.000000e+00  0  2305 0  -7.885161e-04 7.184938e-04 -6.732510e-04   7.894583e-02 9.920625e+01 5.122580e-03 -8.970787e-04 -2.049944e-04 1.241825e-01 2.930814e-08 2.871659e-08 2.955762e-08 7.068678e-04 4.399597e-02 3.679839e-04 1.000000e+00  7.957747e-04  
-3.000000e+00  -7.000000e+00  -4.000000e+00  0  2321 0  2.011800e-03 -3.045872e-05 2.297826e-04   8.099992e-02 1.017875e+02 5.233441e-03 -4.110778e-04 4.385263e-04 1.256315e-01 3.002671e-08 2.964844e-08 3.018481e-08 4.602082e-05 4.421123e-02 2.753958e-04 1.000000e+00  7.957747e-04  
-3.000000e+00  -8.000000e+00  -3.000000e+00  0  2481 0  3.533809e-05 8.019495e-04 -1.690211e-04   8.000023e-02 1.005312e+02 3.756625e-03 8.664265e-04 8.069395e-04 1.225667e-01 2.851501e-08 2.752434e-08 2.898400e-08 1.349629e-04 4.388466e-02 -8.052188e-05 1.000000e+00  7.957747e-04  
-3.000000e+00  -7.000000e+00  -3.000000e+00  0  2497 0  5.338306e-05 -7.120992e-04 -5.113400e-04   7.849820e-02 9.864375e+01 3.923848e-03 5.207930e-04 1.367272e-03 1.238032e-01 2.916801e-08 2.844635e-08 2.948959e-08 -3.617483e-04 4.444773e-02 2.530044e-04 1.000000e+00  7.957747e-04  
-2.000000e+00  -8.000000e+00  -4.000000e+00  0  2306 0  2.192427e-04 -2.259577e-04 7.932741e-04   7.793619e-02 9.793750e+01 4.715500e-03 2.601847e-03 3.824598e-04 1.245876e-01 2.932475e-08 2.842106e-08 2.976457e-08 4.483084e-04 4.417425e-02 3.010263e-04 1.000000e+00  7.957747e-04  
-2.000000e+00  -7.000000e+00  -4.000000e+00  0  2322 0  1.158666e-03 3.012737e-04 -1.360583e-03   7.930392e-02 9.965625e+01 5.222456e-03 2.402868e-03 2.786579e-04 1.259953e-01 2.994950e-08 2.937118e-08 3.022613e-08 3.500494e-04 4.378059e-02 6.191554e-05 1.000000e+00  7.957747e-04  
-2.000000e+00  -8.000000e+00  -3.000000e+00  0  2482 0  -1.013053e-03 -8.030722e-04 -9.087912e-04   7.809037e-02 9.813125e+01 4.028194e-03 1.787995e-03 2.390939e-04 1.235764e-01 2.912597e-08 2.801675e-08 2.964003e-08 1.474856e-04 4.397811e-02 1.428758e-04 1.000000e+00  7.957747e-04  
-2.000000e+00  -7.000000e+00  -3.000000e+00  0  2498 0  -1.722910e-03 -8.206960e-05 1.480565e-03   7.804063e-02 9.806875e+01 3.960343e-03 1.659152e-03 1.354228e-03 1.240400e-01 2.931267e-08 2.840250e-08 2.974330e-08 -4.035580e-04 4.409433e-02 1.738908e-04 1.000000e+00  7.957747e-04  
-1.000000e+00  -8.000000e+00  -4.000000e+00  0  2307 0  3.407540e-04 -3.067241e-04 -9.314372e-04   7.726972e-02 9.710000e+01 3.436888e-03 1.342901e-03 1.323114e-03 1.210116e-01 2.746230e-08 2.642057e-08 2.794711e-08 5.711835e-04 4.332793e-02 8.086359e-04 1.000000e+00  7.957747e-04  
-1.000000e+00  -7.000000e+00  -4.000000e+00  0  2323 0  -4.006345e-04 -1.770138e-03 -6.108273e-05   7.859767e-02 9.876875e+01 4.822270e-03 1.212772e-03 8.593263e-04 1.229749e-01 2.844846e-08 2.723021e-08 2.903307e-08 6.097028e-04 4.314734e-02 5.018367e-06 1.000000e+00  7.957747e-04  
-1.000000e+00  -8.000000e+00  -3.000000e+00  0  2483 0  -1.707274e-04 -6.709590e-04 9.233624e-04   7.813513e-02 9.818750e+01 4.131301e-03 -7.129089e-04 -4.299657e-05 1.220941e-01 2.808165e-08 2.707058e-08 2.854204e-08 5.230562e-04 4.303881e-02 4.027643e-04 1.000000e+00  7.957747e-04  
-1.000000e+00  -7.000000e+00  -3.000000e+00  0  2499 0  -9.468828e-05 2.089425e-03 -2.308840e-04   7.961229e-02 1.000438e+02 3.960376e-03 6.007879e-04 -3.445739e-04 1.237463e-01 2.882599e-08 2.781815e-08 2.931490e-08 -2.641597e-04 4.313610e-02 -7.969523e-05 1.000000e+00  7.957747e-04  
0.000000e+00  -8.000000e+00  -4.000000e+00  0  2308 0  -8.845940e-04 -1.105299e-04 7.649232e-04   7.807047e-02 9.810625e+01 2.901068e-03 -1.373587e-03 6.667056e-04 1.185812e-01 2.674669e-08 2.606328e-08 2.704482e-08 5.631403e-04 4.213806e-02 1.135403e-04 1.000000e+00  7.957747e-04  
0.000000e+00  -7.000000e+00  -4.000000e+00  0  2324 0  9.293957e-04 1.553539e-03 4.199018e-04   7.884138e-02 9.907500e+01 3.845205e-03 -1.116204e-03 6.643928e-04 1.209353e-01 2.776061e-08 2.704727e-08 2.808442e-08 5.410908e-04 4.236916e-02 -5.064767e-05 1.000000e+00  7.957747e-04  
0.000000e+00  -8.000000e+00  -3.000000e+00  0  2484 0  1.792988e-03 3.192369e-04 4.523175e-04   7.906022e-02 9.935000e+01 2.820060e-03 -9.364734e-04 8.637269e-04 1.194007e-01 2.716086e-08 2.643986e-08 2.748772e-08 6.495457e-04 4.194591e-02 1.210447e-06 1.000000e+00  7.957747e-04  
0.000000e+00  -7.000000e+00  -3.000000e+00  0  2500 0  -9.170363e-04 -2.991579e-03 -6.092595e-04   8.016933e-02 1.007438e+02 2.841494e-03 -6.024426e-04 5.500595e-04 1.211045e-01 2.796625e-08 2.712124e-08 2.835846e-08 4.336448e-05 4.196791e-02 2.509561e-05 1.000000e+00  7.957747e-04  
-1.500000e+01  -6.000000e+00  -4.000000e+00  0  1043 0  -4.974046e-04 1.119474e-03 -8.737911e-04   7.456906e-02 9.370625e+01 -9.305547e-04 1.108881e-04 -1.082757e-03 1.183665e-01 2.687454e-08 2.694228e-08 2.680292e-08 6.957134e-04 3.866411e-02 -1.647776e-04 1.000000e+00  7.957747e-04  
-1.600000e+01  -6.000000e+00  -4.000000e+00  0  1042 0  1.162493e-03 -1.006475e-03 2.739796e-03   7.290291e-02 9.161250e+01 -2.829439e-03 5.661038e-04 -1.436354e-03 1.201797e-01 2.728575e-08 2.713699e-08 2.732419e-08 3.249122e-04 3.757751e-02 2.085274e-06 1.000000e+00  7.957747e-04  
-1.500000e+01  -6.000000e+00  -3.000000e+00  0  1252 0  -1.023335e-03 -5.865450e-04 -2.219311e-04   7.514600e-02 9.443125e+01 -1.679746e-03 6.197458e-04 -1.387338e-03 1.206926e-01 2.798868e-08 2.831652e-08 2.778380e-08 -3.270219e-04 3.882790e-02 -1.190023e-04 1.000000e+00  7.957747e-04  
-1.600000e+01  -6.000000e+00  -3.000000e+00  0  1251 0  -1.217073e-03 3.081175e-04 7.620322e-04   7.294767e-02 9.166875e+01 -2.917607e-03 8.956846e-04 -1.350334e-03 1.188901e-01 2.692208e-08 2.662094e-08 2.704014e-08 5.481936e-06 3.769092e-02 4.037981e-05 1.000000e+00  7.957747e-04  
-1.400000e+01  -6.000000e+00  -4.000000e+00  0  1044 0  9.890755e-04 -1.225425e-03 2.780853e-04   7.507637e-02 9.434375e+01 7.687064e-04 -3.737079e-04 -4.420855e-04 1.204888e-01 2.779297e-08 2.805608e-08 2.764294e-08 5.869002e-04 3.909136e-02 -2.866690e-05 1.000000e+00  7.957747e-04  
-1.400000e+01  -6.000000e+00  -3.000000e+00  0  1253 0  2.722115e-03 6.372999e-04 -1.130176e-04   7.552897e-02 9.491250e+01 -1.765653e-04 -4.869587e-04 -1.018471e-03 1.247565e-01 2.969644e-08 3.019561e-08 2.942393e-08 -3.604661e-04 3.917307e-02 1.932794e-04 1.000000e+00  7.957747e-04  
-1.300000e+01  -6.000000e+00  -4.000000e+00  0  2327 0  -4.062282e-03 7.890166e-04 -1.014526e-06   7.679226e-02 9.650000e+01 5.834051e-04 3.063555e-04 -4.488021e-04 1.229328e-01 2.875809e-08 2.886738e-08 2.867867e-08 4.616773e-04 3.966968e-02 2.150497e-04 1.000000e+00  7.957747e-04  
-1.300000e+01  -6.000000e+00  -3.000000e+00  0  2503 0  2.449392e-04 -1.438827e-03 -2.415774e-03   7.681713e-02 9.653125e+01 4.855308e-04 7.265291e-04 -8.073912e-04 1.242519e-01 2.920835e-08 2.956966e-08 2.901231e-08 -4.052627e-05 4.002141e-02 -3.654182e-05 1.000000e+00  7.957747e-04  
-1.200000e+01  -6.000000e+00  -4.000000e+00  0  2328 0  -1.431477e-06 -6.369520e-04 1.145831e-03   7.619543e-02 9.575000e+01 1.144335e-03 -1.104390e-04 -8.415763e-04 1.219749e-01 2.839826e-08 2.861784e-08 2.823157e-08 7.500762e-04 4.061161e-02 2.598806e-04 1.000000e+00  7.957747e-04  
-1.200000e+01  -6.000000e+00  -3.000000e+00  0  2504 0  -1.369441e-03 2.063513e-04 -6.796425e-04   7.760793e-02 9.752500e+01 1.794864e-03 -7.097187e-04 -1.142135e-03 1.219423e-01 2.856443e-08 2.913593e-08 2.824256e-08 5.083991e-04 4.052554e-02 -2.254476e-04 1.000000e+00  7.957747e-04  
-1.100000e+01  -6.000000e+00  -4.000000e+00  0  2329 0  -2.663022e-03 9.720837e-04 -7.505147e-06   7.493214e-02 9.416250e+01 2.210533e-03 -2.722247e-04 -1.318945e-03 1.219249e-01 2.824847e-08 2.878498e-08 2.792336e-08 8.230874e-04 4.195042e-02 -5.834230e-04 1.000000e+00  7.957747e-04  
-1.100000e+01  -6.000000e+00  -3.000000e+00  0  2505 0  6.412828e-04 9.731433e-04 -4.487013e-04   7.940340e-02 9.978125e+01 2.987982e-03 -2.954765e-04 -1.042373e-03 1.217491e-01 2.864731e-08 2.916432e-08 2.834349e-08 3.929873e-04 4.140648e-02 -5.928166e-04 1.000000e+00  7.957747e-04  
-1.000000e+01  -6.000000e+00  -4.000000e+00  0  2330 0  -1.063650e-04 -1.133097e-03 -2.252822e-03   7.852307e-02 9.867500e+01 2.397778e-03 8.517515e-04 -7.911923e-04 1.244883e-01 2.925028e-08 2.961290e-08 2.904316e-08 4.464275e-04 4.232775e-02 -3.035280e-04 1.000000e+00  7.957747e-04  
-1.000000e+01  -6.000000e+00  -3.000000e+00  0  2506 0  -1.160605e-03 -1.432912e-04 5.342967e-04   8.292967e-02 1.042125e+02 3.043122e-03 7.821387e-04 3.066113e-04 1.253348e-01 3.000528e-08 3.046531e-08 2.974682e-08 -5.017841e-04 4.194859e-02 1.400811e-04 1.000000e+00  7.957747e-04  
-9.000000e+00  -6.000000e+00  -4.000000e+00  0  2331 0  -3.471827e-03 -2.056328e-04 1.403149e-03   8.326788e-02 1.046375e+02 2.494470e-03 -1.417962e-03 -9.647025e-05 1.244573e-01 2.948424e-08 2.971617e-08 2.934556e-08 1.447338e-04 4.220949e-02 6.464009e-04 1.000000e+00  7.957747e-04  
-9.000000e+00  -6.000000e+00  -3.000000e+00  0  2507 0  1.420458e-03 -4.917517e-04 -2.474538e-03   8.389455e-02 1.054250e+02 3.290817e-03 -6.264384e-04 7.888457e-04 1.266663e-01 3.073294e-08 3.124864e-08 3.044027e-08 -3.444299e-04 4.186100e-02 5.845981e-04 1.000000e+00  7.957747e-04  
-8.000000e+00  -6.000000e+00  -4.000000e+00  0  2332 0  2.501717e-04 -4.907328e-04 -1.526549e-03   7.874688e-02 9.895625e+01 3.635919e-03 -1.885273e-03 -3.293158e-04 1.243223e-01 2.955941e-08 2.954189e-08 2.954201e-08 2.381832e-04 4.339803e-02 -1.833336e-04 1.000000e+00  7.957747e-04  
-8.000000e+00  -6.000000e+00  -3.000000e+00  0  2508 0  -1.844562e-03 -2.389008e-04 -7.269422e-04   8.262131e-02 1.038250e+02 4.617959e-03 -6.895164e-04 4.753681e-04 1.260771e-01 3.044690e-08 3.060923e-08 3.032668e-08 3.499337e-04 4.287104e-02 -4.160544e-04 1.000000e+00  7.957747e-04  
-7.000000e+00  -6.000000e+00  -4.000000e+00  0  2333 0  -2.228023e-03 -1.011465e-03 -1.590687e-03   7.839376e-02 9.851250e+01 4.470186e-03 -2.301079e-04 5.850369e-04 1.247013e-01 2.980359e-08 2.964151e-08 2.986069e-08 3.057157e-04 4.391377e-02 2.517668e-04 1.000000e+00  7.957747e-04  
-7.000000e+00  -6.000000e+00  -3.000000e+00  0  2509 0  2.280887e-03 -3.525462e-06 5.279996e-04   8.379010e-02 1.052938e+02 4.979189e-03 -1.199878e-04 3.783494e-04 1.252165e-01 3.025657e-08 3.011537e-08 3.029928e-08 1.899997e-04 4.336125e-02 3.418602e-05 1.000000e+00  7.957747e-04  
-6.000000e+00  -6.000000e+00  -4.000000e+00  0  2334 0  1.636251e-03 2.334613e-03 -6.096020e-04   8.451625e-02 1.062062e+02 3.938898e-03 -4.824351e-04 9.986295e-04 1.246863e-01 2.990320e-08 2.944780e-08 3.011314e-08 2.594747e-05 4.330555e-02 5.065276e-04 1.000000e+00  7.957747e-04  
-6.000000e+00  -6.000000e+00  -3.000000e+00  0  2510 0  7.213011e-04 -6.473022e-04 4.411732e-04   8.501361e-02 1.068312e+02 4.595287e-03 5.348483e-04 1.250918e-03 1.253240e-01 3.040372e-08 2.984460e-08 3.065599e-08 -1.344427e-04 4.320271e-02 6.768569e-04 1.000000e+00  7.957747e-04  
-5.000000e+00  -6.000000e+00  -4.000000e+00  0  2335 0  -1.374856e-03 -2.660514e-03 2.298947e-04   8.225326e-02 1.033625e+02 4.033508e-03 -5.495550e-05 1.093566e-04 1.258820e-01 3.042929e-08 2.948072e-08 3.087548e-08 -4.807942e-04 4.332578e-02 -3.346371e-04 1.000000e+00  7.957747e-04  
-5.000000e+00  -6.000000e+00  -3.000000e+00  0  2511 0  2.145420e-03 2.758567e-03 4.959020e-04   8.599838e-02 1.080687e+02 5.395616e-03 2.443883e-05 5.429254e-04 1.260803e-01 3.043588e-08 2.964156e-08 3.079659e-08 -3.232083e-04 4.347520e-02 4.255836e-04 1.000000e+00  7.957747e-04  
-4.000000e+00  -6.000000e+00  -4.000000e+00  0  2336 0  -7.588683e-04 -4.653702e-04 -7.229637e-04   8.074129e-02 1.014625e+02 4.845350e-03 -2.374253e-04 -8.497735e-04 1.251590e-01 3.001812e-08 2.917253e-08 3.040953e-08 -6.712538e-04 4.363638e-02 -2.774812e-04 1.000000e+00  7.957747e-04  
-4.000000e+00  -6.000000e+00  -3.000000e+00  0  2512 0  3.427326e-03 -4.830141e-04 -5.746923e-04   8.395423e-02 1.055000e+02 5.424986e-03 -3.807928e-04 -1.081810e-03 1.237066e-01 2.938231e-08 2.879138e-08 2.963908e-08 -1.065146e-04 4.395414e-02 -2.762741e-04 1.000000e+00  7.957747e-04  
-3.000000e+00  -6.000000e+00  -4.000000e+00  0  2337 0  3.820233e-03 1.089880e-03 -9.381674e-04   8.411339e-02 1.057000e+02 5.018949e-03 -3.244448e-04 3.071291e-04 1.235385e-01 2.919664e-08 2.888686e-08 2.932501e-08 -1.551843e-04 4.378739e-02 -3.166292e-04 1.000000e+00  7.957747e-04  
-3.000000e+00  -6.000000e+00  -3.000000e+00  0  2513 0  -2.480639e-03 1.644014e-04 -2.631800e-04   7.987589e-02 1.003750e+02 3.697400e-03 -4.316748e-04 1.040115e-03 1.235059e-01 2.907745e-08 2.854417e-08 2.929455e-08 1.551038e-04 4.430941e-02 -2.728727e-04 1.000000e+00  7.957747e-04  
-2.000000e+00  -6.000000e+00  -4.000000e+00  0  2338 0  -1.319830e-03 -3.713688e-04 -1.580620e-03   8.228311e-02 1.034000e+02 5.465640e-03 1.576371e-03 1.039374e-03 1.257317e-01 2.998965e-08 2.934034e-08 3.029669e-08 3.101091e-04 4.333621e-02 -2.991137e-04 1.000000e+00  7.957747e-04  
-2.000000e+00  -6.000000e+00  -3.000000e+00  0  2514 0  8.603307e-04 2.896661e-04 4.393248e-05   8.072637e-02 1.014437e+02 3.292065e-03 1.237498e-03 1.807182e-03 1.258039e-01 2.991792e-08 2.872449e-08 3.047528e-08 1.619517e-05 4.404252e-02 3.729498e-05 1.000000e+00  7.957747e-04  
-1.000000e+00  -6.000000e+00  -4.000000e+00  0  2339 0  -1.722925e-03 -4.555356e-04 1.734862e-04   7.746369e-02 9.734375e+01 5.447985e-03 8.644926e-04 2.678188e-04 1.261583e-01 3.015328e-08 2.851712e-08 3.094050e-08 1.958327e-04 4.291396e-02 -9.422454e-05 1.000000e+00  7.957747e-04  
-1.000000e+00  -6.000000e+00  -3.000000e+00  0  2515 0  7.640705e-04 -1.604390e-03 2.444846e-04   8.157686e-02 1.025125e+02 3.331489e-03 7.425841e-04 -5.698173e-04 1.260079e-01 2.997606e-08 2.831126e-08 3.077227e-08 8.765592e-05 4.314464e-02 -9.310051e-05 1.000000e+00  7.957747e-04  
0.000000e+00  -6.000000e+00  -4.000000e+00  0  2340 0  -1.949031e-03 1.793157e-03 3.590191e-04   7.649882e-02 9.613125e+01 4.150639e-03 -7.979275e-04 9.786858e-04 1.236136e-01 2.886242e-08 2.788914e-08 2.930822e-08 1.614041e-04 4.230648e-02 3.907488e-06 1.000000e+00  7.957747e-04  
0.000000e+00  -6.000000e+00  -3.000000e+00  0  2516 0  4.677064e-04 -5.957962e-04 4.929845e-04   7.973165e-02 1.001937e+02 2.394688e-03 -9.200255e-04 1.817336e-04 1.229019e-01 2.855327e-08 2.794426e-08 2.881899e-08 9.613861e-05 4.210975e-02 -5.554019e-05 1.000000e+00  7.957747e-04  
-1.500000e+01  -5.000000e+00  -4.000000e+00  0  3320 0  1.740697e-04 6.516224e-05 3.772971e-04   7.347985e-02 9.233750e+01 -5.131291e-04 -1.530582e-03 -5.990914e-04 1.205694e-01 2.760275e-08 2.766018e-08 2.753353e-08 -7.641964e-05 3.848236e-02 -4.758474e-05 1.000000e+00  7.957747e-04  