VARIABLES="X", "Y", "Z", "Maximum Refinment Level", "Temp_ID", "Thread","Ex (corner node)","Ey (corner node)","Ez (corner node)", "Number Density[1/m^3]", "Particle Number", "Vx [m/s]", "Vy [m/s]", "Vz [m/s]", "|V| [m/s]", "Translational Temperature [K]", "Parallel Translational Temperature [K]", "Tangential Translational Temperature [K]","Bx (center node)","By (center node)","Bz (center node)", "Local Time Step" , "log10(Local Particle Weight)" 
ZONE N=5049, E=4096, DATAPACKING=POINT, ZONETYPE=FEBRICK
-1.600000e+01  -8.000000e+00  -4.000000e+00  0  1004 0  -2.496809e-03 4.327814e-06 5.171637e-04   6.654666e-02 8.362500e+01 -2.329084e-03 2.194932e-04 2.220001e-04 2.395235e-02 2.713576e-08 2.806270e-08 2.627613e-08 1.792904e-05 3.842229e-02 -5.841407e-04 1.000000e+00  7.957747e-04  
-1.500000e+01  -8.000000e+00  -4.000000e+00  0  1005 0  1.445517e-03 1.097818e-03 -5.901210e-05   6.820784e-02 8.571250e+01 -1.118959e-03 -5.832121e-05 3.041579e-04 2.384693e-02 2.700132e-08 2.858797e-08 2.589717e-08 8.303358e-05 3.877384e-02 -4.331706e-04 1.000000e+00  7.957747e-04  
-1.500000e+01  -7.000000e+00  -4.000000e+00  0  1024 0  6.332551e-04 -1.138185e-04 6.631841e-04   7.308693e-02 9.184375e+01 -1.078170e-03 -3.736214e-04 -2.179695e-05 2.379862e-02 2.699386e-08 2.682827e-08 2.676867e-08 4.276360e-04 3.884691e-02 -3.748590e-04 1.000000e+00  7.957747e-04  
-1.600000e+01  -7.000000e+00  -4.000000e+00  0  1023 0  1.116398e-03 5.796095e-04 2.780720e-04   6.992870e-02 8.787500e+01 -2.128582e-03 7.821062e-04 -3.091241e-05 2.389219e-02 2.694593e-08 2.626794e-08 2.684388e-08 1.407539e-04 3.827105e-02 -3.656549e-04 1.000000e+00  7.957747e-04  
-1.600000e+01  -8.000000e+00  -3.000000e+00  0  1213 0  3.840319e-03 6.300768e-04 4.921524e-04   6.798403e-02 8.543125e+01 -2.535358e-03 -2.147296e-04 3.631752e-04 2.428765e-02 2.777151e-08 2.711027e-08 2.771281e-08 -2.903976e-04 3.781585e-02 -7.782365e-04 1.000000e+00  7.957747e-04  
-1.500000e+01  -8.000000e+00  -3.000000e+00  0  1214 0  -1.483055e-03 2.761146e-04 3.131746e-03   6.837694e-02 8.592500e+01 -1.931339e-03 -7.366837e-05 1.932691e-04 2.430790e-02 2.812267e-08 2.883140e-08 2.741755e-08 -1.996889e-04 3.854062e-02 -2.650850e-04 1.000000e+00  7.957747e-04  
-1.500000e+01  -7.000000e+00  -3.000000e+00  0  1233 0  -8.279563e-04 8.271543e-05 1.179368e-03   7.228121e-02 9.083125e+01 -9.296507e-04 -1.660931e-04 2.088818e-04 2.428541e-02 2.784872e-08 2.731089e-08 2.782152e-08 -4.651337e-04 3.842803e-02 -3.669969e-04 1.000000e+00  7.957747e-04  
-1.600000e+01  -7.000000e+00  -3.000000e+00  0  1232 0  -4.335390e-04 1.265361e-03 1.543325e-03   7.013262e-02 8.813125e+01 -1.817121e-03 3.715490e-04 -3.499133e-04 2.443829e-02 2.800802e-08 2.756152e-08 2.776091e-08 -4.656226e-04 3.760682e-02 -3.908925e-04 1.000000e+00  7.957747e-04  
-1.400000e+01  -8.000000e+00  -4.000000e+00  0  1006 0  -5.781325e-04 -6.530791e-04 2.140261e-04   7.331075e-02 9.212500e+01 -6.622851e-04 -3.066760e-04 3.987886e-05 2.395274e-02 2.712491e-08 2.746734e-08 2.669975e-08 -2.579791e-04 3.940036e-02 -2.783436e-04 1.000000e+00  7.957747e-04  
-1.400000e+01  -7.000000e+00  -4.000000e+00  0  1025 0  1.149032e-03 2.786179e-04 1.236519e-03   7.468843e-02 9.385625e+01 -5.781442e-05 -7.390206e-04 -1.023857e-04 2.401845e-02 2.752759e-08 2.853050e-08 2.684882e-08 3.222136e-04 3.933612e-02 -4.090272e-04 1.000000e+00  7.957747e-04  
-1.400000e+01  -8.000000e+00  -3.000000e+00  0  1215 0  -1.106610e-03 -1.273667e-04 3.703975e-04   7.413636e-02 9.316250e+01 -7.642304e-04 2.083447e-04 4.094073e-05 2.409095e-02 2.775575e-08 2.825018e-08 2.719205e-08 -1.623571e-04 3.961218e-02 -1.347028e-04 1.000000e+00  7.957747e-04  
-1.400000e+01  -7.000000e+00  -3.000000e+00  0  1234 0  -2.088608e-03 1.923875e-03 2.230665e-04   7.589701e-02 9.537500e+01 -4.658167e-04 -6.815417e-04 4.140021e-04 2.422788e-02 2.795277e-08 2.823608e-08 2.761654e-08 -3.179226e-04 3.948938e-02 -2.401509e-04 1.000000e+00  7.957747e-04  
-1.300000e+01  -8.000000e+00  -4.000000e+00  0  2295 0  -3.629021e-04 -9.600904e-04 -4.930897e-04   7.604622e-02 9.556250e+01 -6.801641e-05 -2.633467e-04 -1.277382e-04 2.464236e-02 2.866864e-08 2.807790e-08 2.863405e-08 -4.220216e-04 3.998287e-02 -6.415978e-04 1.000000e+00  7.957747e-04  
-1.300000e+01  -7.000000e+00  -4.000000e+00  0  2311 0  2.545343e-04 4.895215e-04 -5.656197e-04   7.535489e-02 9.469375e+01 7.051987e-04 -9.432369e-04 -2.911838e-04 2.474164e-02 2.923541e-08 2.973448e-08 2.881954e-08 2.769725e-04 3.968448e-02 -2.473580e-04 1.000000e+00  7.957747e-04  
-1.300000e+01  -8.000000e+00  -3.000000e+00  0  2471 0  4.748105e-05 1.863011e-03 3.740634e-04   7.599151e-02 9.549375e+01 -2.914330e-05 3.613022e-04 7.926653e-05 2.427693e-02 2.799903e-08 2.785380e-08 2.779721e-08 -4.926406e-04 4.050092e-02 -5.661561e-04 1.000000e+00  7.957747e-04  
-1.300000e+01  -7.000000e+00  -3.000000e+00  0  2487 0  2.024225e-03 -1.853914e-03 1.709373e-03   7.734433e-02 9.719375e+01 6.144066e-05 -3.311913e-04 1.848998e-04 2.478795e-02 2.938182e-08 2.902147e-08 2.929803e-08 4.892584e-05 4.043611e-02 8.765402e-05 1.000000e+00  7.957747e-04  
-1.200000e+01  -8.000000e+00  -4.000000e+00  0  2296 0  -8.930143e-04 1.919434e-04 2.336393e-04   7.784169e-02 9.781875e+01 1.381503e-03 6.526563e-05 -5.764963e-04 2.493434e-02 2.939632e-08 2.869112e-08 2.955988e-08 -3.607616e-04 4.101392e-02 -1.108470e-04 1.000000e+00  7.957747e-04  
-1.200000e+01  -7.000000e+00  -4.000000e+00  0  2312 0  1.014455e-03 -7.942435e-04 4.673594e-04   7.498685e-02 9.423125e+01 1.432512e-03 -5.036260e-04 -6.435394e-04 2.529322e-02 3.047641e-08 3.094309e-08 3.007622e-08 1.530961e-04 4.075871e-02 -1.673137e-04 1.000000e+00  7.957747e-04  
-1.200000e+01  -8.000000e+00  -3.000000e+00  0  2472 0  -5.461355e-04 -9.588960e-04 -3.170092e-04   7.724486e-02 9.706875e+01 1.185492e-03 2.890922e-04 -3.350063e-04 2.445152e-02 2.838469e-08 2.731660e-08 2.870899e-08 -6.715772e-04 4.113243e-02 1.741021e-04 1.000000e+00  7.957747e-04  
-1.200000e+01  -7.000000e+00  -3.000000e+00  0  2488 0  5.866352e-04 -2.206621e-04 -4.520766e-04   7.811026e-02 9.815625e+01 1.591234e-03 -2.382702e-04 -3.055736e-04 2.494919e-02 2.967143e-08 2.809359e-08 3.018657e-08 2.768430e-04 4.077875e-02 1.230281e-04 1.000000e+00  7.957747e-04  
-1.100000e+01  -8.000000e+00  -4.000000e+00  0  2297 0  1.721652e-04 -4.082008e-04 8.493932e-04   7.851312e-02 9.866250e+01 2.080253e-03 -1.606626e-04 -2.975004e-05 2.487238e-02 2.922238e-08 2.891655e-08 2.909439e-08 -2.934578e-04 4.145891e-02 4.076752e-04 1.000000e+00  7.957747e-04  
-1.100000e+01  -7.000000e+00  -4.000000e+00  0  2313 0  -2.875978e-03 3.511099e-04 -3.092123e-04   7.507140e-02 9.433750e+01 2.394068e-03 -5.927822e-04 2.258004e-06 2.492007e-02 2.936135e-08 2.954604e-08 2.894703e-08 2.928535e-04 4.171232e-02 -2.734018e-04 1.000000e+00  7.957747e-04  
-1.100000e+01  -8.000000e+00  -3.000000e+00  0  2473 0  -1.438994e-03 -8.853625e-04 -2.866158e-04   7.882646e-02 9.905625e+01 2.035582e-03 -9.052560e-05 2.862769e-04 2.453980e-02 2.862547e-08 2.789314e-08 2.871614e-08 -3.025691e-04 4.130301e-02 2.043393e-04 1.000000e+00  7.957747e-04  
-1.100000e+01  -7.000000e+00  -3.000000e+00  0  2489 0  2.417291e-03 -2.190180e-04 -8.025282e-04   7.953768e-02 9.995000e+01 2.573701e-03 -6.353432e-04 -1.626324e-05 2.483572e-02 2.915019e-08 2.866457e-08 2.911164e-08 2.101098e-04 4.092386e-02 -4.200538e-04 1.000000e+00  7.957747e-04  
-1.000000e+01  -8.000000e+00  -4.000000e+00  0  2298 0  2.738692e-03 -2.544343e-04 -1.500554e-03   7.935366e-02 9.971875e+01 2.603208e-03 5.496838e-04 3.683893e-04 2.525984e-02 2.991481e-08 2.992274e-08 2.963399e-08 -4.250568e-05 4.183294e-02 7.496598e-05 1.000000e+00  7.957747e-04  
-1.000000e+01  -7.000000e+00  -4.000000e+00  0  2314 0  -2.704897e-03 3.164104e-05 -4.565451e-04   8.180564e-02 1.028000e+02 3.005881e-03 3.055865e-04 3.598653e-04 2.500774e-02 2.908632e-08 2.866885e-08 2.901687e-08 1.504124e-04 4.201025e-02 1.202941e-04 1.000000e+00  7.957747e-04  
-1.000000e+01  -8.000000e+00  -3.000000e+00  0  2474 0  -2.732231e-03 1.328715e-03 9.812869e-04   7.614569e-02 9.568750e+01 2.595660e-03 5.394902e-04 1.222553e-03 2.514186e-02 2.988434e-08 2.950590e-08 2.974196e-08 2.191229e-04 4.210888e-02 1.099065e-04 1.000000e+00  7.957747e-04  
-1.000000e+01  -7.000000e+00  -3.000000e+00  0  2490 0  3.089172e-03 -3.204070e-04 3.391479e-04   8.085568e-02 1.016063e+02 3.099923e-03 3.106408e-04 6.973852e-04 2.502011e-02 2.911275e-08 2.926412e-08 2.871892e-08 -1.099699e-04 4.180132e-02 3.812045e-04 1.000000e+00  7.957747e-04  
-9.000000e+00  -8.000000e+00  -4.000000e+00  0  2299 0  -1.185779e-03 -4.071058e-04 4.954141e-04   7.999028e-02 1.005187e+02 2.778693e-03 2.238018e-06 -6.126227e-04 2.538108e-02 3.026757e-08 2.959338e-08 3.036503e-08 -5.168153e-05 4.294201e-02 -6.880156e-04 1.000000e+00  7.957747e-04  
-9.000000e+00  -7.000000e+00  -4.000000e+00  0  2315 0  1.668586e-03 9.677124e-04 8.698370e-05   8.046774e-02 1.011188e+02 2.821008e-03 5.477787e-04 -3.031014e-04 2.548285e-02 3.010627e-08 2.923100e-08 3.031031e-08 8.499737e-05 4.272632e-02 -4.375048e-06 1.000000e+00  7.957747e-04  
-9.000000e+00  -8.000000e+00  -3.000000e+00  0  2475 0  4.667190e-05 -1.041404e-03 -1.397864e-03   7.840370e-02 9.852500e+01 3.408763e-03 1.037731e-04 -8.040878e-05 2.574036e-02 3.109615e-08 3.007467e-08 3.124595e-08 2.471392e-04 4.290230e-02 -5.348445e-04 1.000000e+00  7.957747e-04  
-9.000000e+00  -7.000000e+00  -3.000000e+00  0  2491 0  -2.379789e-03 -1.565195e-04 9.937397e-04   8.096013e-02 1.017375e+02 3.747634e-03 4.670382e-04 5.983311e-04 2.533172e-02 2.953462e-08 2.850772e-08 2.966780e-08 1.110190e-04 4.254385e-02 7.658623e-05 1.000000e+00  7.957747e-04  
-8.000000e+00  -8.000000e+00  -4.000000e+00  0  2300 0  -2.400936e-03 2.782078e-03 7.348039e-04   7.788148e-02 9.786875e+01 3.497372e-03 -4.792286e-04 -6.479217e-05 2.570944e-02 3.102216e-08 3.062290e-08 3.102845e-08 1.376368e-04 4.324182e-02 -6.840240e-04 1.000000e+00  7.957747e-04  
-8.000000e+00  -7.000000e+00  -4.000000e+00  0  2316 0  -7.979547e-04 -1.197574e-03 -3.487038e-04   7.637945e-02 9.598125e+01 3.595070e-03 -5.752222e-04 5.018032e-04 2.607499e-02 3.127295e-08 3.113811e-08 3.103945e-08 3.594778e-04 4.327560e-02 -4.009320e-04 1.000000e+00  7.957747e-04  
-8.000000e+00  -8.000000e+00  -3.000000e+00  0  2476 0  1.598785e-03 -5.760454e-04 9.459852e-04   8.021409e-02 1.008000e+02 3.944718e-03 -3.197570e-04 -9.545014e-05 2.617765e-02 3.174086e-08 3.133853e-08 3.172022e-08 -1.203689e-04 4.301510e-02 -6.526728e-04 1.000000e+00  7.957747e-04  
-8.000000e+00  -7.000000e+00  -3.000000e+00  0  2492 0  7.021985e-04 6.645473e-05 4.353511e-04   8.366576e-02 1.051375e+02 4.136768e-03 -2.928356e-04 3.090985e-04 2.626984e-02 3.168240e-08 3.085569e-08 3.171631e-08 1.487769e-04 4.291811e-02 -1.631061e-04 1.000000e+00  7.957747e-04  
-7.000000e+00  -8.000000e+00  -4.000000e+00  0  2301 0  3.032441e-03 -2.075183e-03 1.682582e-03   7.749851e-02 9.738750e+01 4.362631e-03 -7.922363e-05 1.468671e-04 2.625066e-02 3.184245e-08 3.172533e-08 3.172977e-08 3.793319e-04 4.303682e-02 3.487596e-06 1.000000e+00  7.957747e-04  
-7.000000e+00  -7.000000e+00  -4.000000e+00  0  2317 0  2.772392e-03 -1.453293e-04 1.060866e-03   7.977642e-02 1.002500e+02 4.855449e-03 -6.559175e-04 8.357083e-04 2.650739e-02 3.180574e-08 3.153822e-08 3.171217e-08 9.332293e-05 4.333766e-02 -7.311079e-06 1.000000e+00  7.957747e-04  
-7.000000e+00  -8.000000e+00  -3.000000e+00  0  2477 0  -6.530088e-04 -2.088327e-03 1.444982e-04   7.823958e-02 9.831875e+01 4.954520e-03 -2.809128e-04 6.885982e-04 2.632403e-02 3.153545e-08 3.205475e-08 3.098382e-08 -2.653378e-04 4.331421e-02 -2.829072e-04 1.000000e+00  7.957747e-04  
-7.000000e+00  -7.000000e+00  -3.000000e+00  0  2493 0  -9.574940e-04 1.844658e-04 -1.938479e-03   8.124860e-02 1.021000e+02 5.161120e-03 -5.672453e-04 6.802325e-04 2.687808e-02 3.268151e-08 3.268261e-08 3.229893e-08 -1.646369e-04 4.335246e-02 2.168669e-04 1.000000e+00  7.957747e-04  
-6.000000e+00  -8.000000e+00  -4.000000e+00  0  2302 0  1.761725e-03 8.951752e-05 -2.251962e-03   7.728465e-02 9.711875e+01 4.622179e-03 -1.762900e-04 -3.899642e-04 2.583142e-02 3.073668e-08 2.883821e-08 3.147119e-08 3.108501e-04 4.323253e-02 1.801824e-04 1.000000e+00  7.957747e-04  
-6.000000e+00  -7.000000e+00  -4.000000e+00  0  2318 0  3.596498e-03 1.641581e-03 3.801697e-04   8.177083e-02 1.027562e+02 5.505043e-03 -2.599833e-05 -1.977054e-04 2.571765e-02 3.004890e-08 2.841937e-08 3.067924e-08 -1.607130e-04 4.335809e-02 -3.046924e-04 1.000000e+00  7.957747e-04  
-6.000000e+00  -8.000000e+00  -3.000000e+00  0  2478 0  -4.258639e-04 1.942794e-03 -1.197231e-03   7.863249e-02 9.881250e+01 5.196928e-03 -3.224325e-04 3.081408e-06 2.566125e-02 2.996842e-08 2.881833e-08 3.021462e-08 1.380878e-04 4.374457e-02 -6.250707e-04 1.000000e+00  7.957747e-04  
-6.000000e+00  -7.000000e+00  -3.000000e+00  0  2494 0  -4.273453e-03 -1.900092e-03 -1.673236e-04   8.135802e-02 1.022375e+02 5.903555e-03 2.033582e-04 4.780663e-04 2.555645e-02 2.941273e-08 2.782879e-08 2.983380e-08 2.380509e-04 4.356012e-02 -2.010161e-04 1.000000e+00  7.957747e-04  
-5.000000e+00  -8.000000e+00  -4.000000e+00  0  2303 0  -1.035651e-03 5.624046e-04 -1.662544e-03   7.771735e-02 9.766250e+01 4.702648e-03 -3.638861e-04 1.585423e-04 2.566389e-02 3.039816e-08 2.814456e-08 3.130040e-08 6.012052e-04 4.380182e-02 -1.807226e-05 1.000000e+00  7.957747e-04  
-5.000000e+00  -7.000000e+00  -4.000000e+00  0  2319 0  -7.515030e-04 2.459683e-04 -6.280797e-04   8.105960e-02 1.018625e+02 5.248761e-03 4.245240e-04 -1.140271e-04 2.553533e-02 2.993049e-08 2.810661e-08 3.063048e-08 -3.676916e-04 4.370041e-02 -5.916736e-04 1.000000e+00  7.957747e-04  
-5.000000e+00  -8.000000e+00  -3.000000e+00  0  2479 0  2.543904e-04 -5.840522e-04 2.833575e-03   8.096013e-02 1.017375e+02 4.471578e-03 -2.033482e-04 -5.163340e-05 2.551799e-02 3.014127e-08 2.773592e-08 3.118888e-08 5.249894e-04 4.369384e-02 -4.407493e-04 1.000000e+00  7.957747e-04  
-5.000000e+00  -7.000000e+00  -3.000000e+00  0  2495 0  1.087312e-03 1.186299e-03 2.000401e-04   8.513297e-02 1.069813e+02 5.339730e-03 2.939054e-04 -7.951699e-05 2.519180e-02 2.905519e-08 2.581995e-08 3.049961e-08 3.860145e-04 4.366524e-02 1.032426e-04 1.000000e+00  7.957747e-04  
-4.000000e+00  -8.000000e+00  -4.000000e+00  0  2304 0  -1.321151e-03 -1.121322e-03 1.866882e-04   7.920445e-02 9.953125e+01 4.504089e-03 -2.859338e-05 3.288606e-04 2.578043e-02 3.043975e-08 2.902245e-08 3.094146e-08 9.728551e-04 4.410505e-02 6.375902e-04 1.000000e+00  7.957747e-04  
-4.000000e+00  -7.000000e+00  -4.000000e+00  0  2320 0  -3.618997e-04 -3.376065e-04 -7.653715e-04   8.017928e-02 1.007562e+02 4.825111e-03 3.669325e-04 2.647277e-04 2.574984e-02 3.031409e-08 2.848491e-08 3.104015e-08 -3.330654e-04 4.398162e-02 1.606211e-04 1.000000e+00  7.957747e-04  
-4.000000e+00  -8.000000e+00  -3.000000e+00  0  2480 0  -1.532854e-03 -4.235701e-04 -7.566080e-04   8.110934e-02 1.019250e+02 4.295002e-03 2.217388e-04 3.932054e-04 2.558868e-02 3.055837e-08 2.910730e-08 3.112930e-08 4.336639e-04 4.379859e-02 1.978914e-04 1.000000e+00  7.957747e-04  
-4.000000e+00  -7.000000e+00  -3.000000e+00  0  2496 0  9.697077e-04 9.570096e-04 3.888838e-04   8.344693e-02 1.048625e+02 4.578248e-03 1.009299e-04 9.648154e-05 2.571254e-02 3.069795e-08 2.773983e-08 3.209921e-08 -1.555391e-04 4.423299e-02 3.737305e-04 1.000000e+00  7.957747e-04  
-3.000000e+00  -8.000000e+00  -4.000000e+00  0  2305 0  -7.885161e-04 7.184938e-04 -6.732510e-04   8.221348e-02 1.033125e+02 5.035325e-03 3.765389e-04 -1.569870e-04 2.564593e-02 2.992109e-08 2.882064e-08 3.031021e-08 7.068678e-04 4.399597e-02 3.679839e-04 1.000000e+00  7.957747e-04  
-3.000000e+00  -7.000000e+00  -4.000000e+00  0  2321 0  2.011800e-03 -3.045872e-05 2.297826e-04   8.059208e-02 1.012750e+02 4.645157e-03 -1.450344e-04 -8.243178e-05 2.554295e-02 2.984299e-08 2.854876e-08 3.031656e-08 4.602082e-05 4.421123e-02 2.753958e-04 1.000000e+00  7.957747e-04  
-3.000000e+00  -8.000000e+00  -3.000000e+00  0  2481 0  3.533809e-05 8.019495e-04 -1.690211e-04   8.046774e-02 1.011188e+02 4.783183e-03 2.873015e-04 -5.198444e-05 2.550509e-02 2.986821e-08 2.844352e-08 3.039821e-08 1.349629e-04 4.388466e-02 -8.052188e-05 1.000000e+00  7.957747e-04  
-3.000000e+00  -7.000000e+00  -3.000000e+00  0  2497 0  5.338306e-05 -7.120992e-04 -5.113400e-04   8.243729e-02 1.035938e+02 4.464007e-03 -5.717678e-05 9.407222e-05 2.545560e-02 3.006571e-08 2.840502e-08 3.075835e-08 -3.617483e-04 4.444773e-02 2.530044e-04 1.000000e+00  7.957747e-04  
-2.000000e+00  -8.000000e+00  -4.000000e+00  0  2306 0  2.192427e-04 -2.259577e-04 7.932741e-04   8.091039e-02 1.016750e+02 4.877986e-03 7.976535e-04 2.759895e-05 2.570733e-02 3.029757e-08 2.835479e-08 3.095731e-08 4.483084e-04 4.417425e-02 3.010263e-04 1.000000e+00  7.957747e-04  
-2.000000e+00  -7.000000e+00  -4.000000e+00  0  2322 0  1.158666e-03 3.012737e-04 -1.360583e-03   7.911990e-02 9.942500e+01 4.154982e-03 1.784199e-04 3.860102e-04 2.521528e-02 2.942592e-08 2.734032e-08 3.013992e-08 3.500494e-04 4.378059e-02 6.191554e-05 1.000000e+00  7.957747e-04  
-2.000000e+00  -8.000000e+00  -3.000000e+00  0  2482 0  -1.013053e-03 -8.030722e-04 -9.087912e-04   7.864244e-02 9.882500e+01 4.697488e-03 -7.914636e-05 3.007102e-04 2.564420e-02 2.971311e-08 2.829967e-08 3.004418e-08 1.474856e-04 4.397811e-02 1.428758e-04 1.000000e+00  7.957747e-04  
-2.000000e+00  -7.000000e+00  -3.000000e+00  0  2498 0  -1.722910e-03 -8.206960e-05 1.480565e-03   8.082584e-02 1.015687e+02 4.219480e-03 -1.278648e-04 5.665420e-04 2.493688e-02 2.862260e-08 2.759358e-08 2.875506e-08 -4.035580e-04 4.409433e-02 1.738908e-04 1.000000e+00  7.957747e-04  
-1.000000e+00  -8.000000e+00  -4.000000e+00  0  2307 0  3.407540e-04 -3.067241e-04 -9.314372e-04   7.823958e-02 9.831875e+01 3.137768e-03 3.494086e-04 9.177321e-05 2.513135e-02 2.966290e-08 2.584192e-08 3.116467e-08 5.711835e-04 4.332793e-02 8.086359e-04 1.000000e+00  7.957747e-04  
-1.000000e+00  -7.000000e+00  -4.000000e+00  0  2323 0  -4.006345e-04 -1.770138e-03 -6.108273e-05   7.919948e-02 9.952500e+01 3.411076e-03 8.385867e-05 5.373068e-04 2.465062e-02 2.835834e-08 2.543369e-08 2.944189e-08 6.097028e-04 4.314734e-02 5.018367e-06 1.000000e+00  7.957747e-04  
-1.000000e+00  -8.000000e+00  -3.000000e+00  0  2483 0  -1.707274e-04 -6.709590e-04 9.233624e-04   7.897567e-02 9.924375e+01 3.109002e-03 -7.318446e-04 2.345612e-04 2.544993e-02 2.983568e-08 2.876229e-08 2.992498e-08 5.230562e-04 4.303881e-02 4.027643e-04 1.000000e+00  7.957747e-04  
-1.000000e+00  -7.000000e+00  -3.000000e+00  0  2499 0  -9.468828e-05 2.089425e-03 -2.308840e-04   7.997039e-02 1.004938e+02 3.028854e-03 -2.025993e-04 4.290449e-04 2.464791e-02 2.819017e-08 2.733831e-08 2.811867e-08 -2.641597e-04 4.313610e-02 -7.969523e-05 1.000000e+00  7.957747e-04  
0.000000e+00  -8.000000e+00  -4.000000e+00  0  2308 0  -8.845940e-04 -1.105299e-04 7.649232e-04   7.862254e-02 9.880000e+01 2.745543e-03 1.449348e-04 -2.180527e-05 2.472585e-02 2.863538e-08 2.507859e-08 3.021628e-08 5.631403e-04 4.213806e-02 1.135403e-04 1.000000e+00  7.957747e-04  
0.000000e+00  -7.000000e+00  -4.000000e+00  0  2324 0  9.293957e-04 1.553539e-03 4.199018e-04   7.774719e-02 9.770000e+01 3.119177e-03 4.911992e-05 2.663867e-04 2.478885e-02 2.854365e-08 2.735012e-08 2.887225e-08 5.410908e-04 4.236916e-02 -5.064767e-05 1.000000e+00  7.957747e-04  
0.000000e+00  -8.000000e+00  -3.000000e+00  0  2484 0  1.792988e-03 3.192369e-04 4.523175e-04   7.937853e-02 9.975000e+01 2.214183e-03 -3.942426e-04 -2.358836e-04 2.503943e-02 2.923555e-08 2.790698e-08 2.968612e-08 6.495457e-04 4.194591e-02 1.210447e-06 1.000000e+00  7.957747e-04  
0.000000e+00  -7.000000e+00  -3.000000e+00  0  2500 0  -9.170363e-04 -2.991579e-03 -6.092595e-04   7.895080e-02 9.921250e+01 2.450997e-03 -2.882012e-04 1.816432e-04 2.483806e-02 2.878310e-08 2.864513e-08 2.858430e-08 4.336448e-05 4.196791e-02 2.509561e-05 1.000000e+00  7.957747e-04  
-1.500000e+01  -6.000000e+00  -4.000000e+00  0  1043 0  -4.974046e-04 1.119474e-03 -8.737911e-04   7.490727e-02 9.413125e+01 -9.055904e-04 -4.120131e-04 -5.621563e-04 2.388348e-02 2.694131e-08 2.510871e-08 2.751657e-08 6.957134e-04 3.866411e-02 -1.647776e-04 1.000000e+00  7.957747e-04  
-1.600000e+01  -6.000000e+00  -4.000000e+00  0  1042 0  1.162493e-03 -1.006475e-03 2.739796e-03   7.306207e-02 9.181250e+01 -2.535962e-03 9.948920e-04 -7.680882e-04 2.384297e-02 2.646104e-08 2.592039e-08 2.643483e-08 3.249122e-04 3.757751e-02 2.085274e-06 1.000000e+00  7.957747e-04  
-1.500000e+01  -6.000000e+00  -3.000000e+00  0  1252 0  -1.023335e-03 -5.865450e-04 -2.219311e-04   7.520568e-02 9.450625e+01 -5.050757e-04 -1.360149e-04 -4.567638e-04 2.426883e-02 2.753469e-08 2.665316e-08 2.775353e-08 -3.270219e-04 3.882790e-02 -1.190023e-04 1.000000e+00  7.957747e-04  
-1.600000e+01  -6.000000e+00  -3.000000e+00  0  1251 0  -1.217073e-03 3.081175e-04 7.620322e-04   7.139591e-02 8.971875e+01 -2.110608e-03 6.867495e-04 -9.547866e-04 2.424753e-02 2.742687e-08 2.760728e-08 2.706760e-08 5.481936e-06 3.769092e-02 4.037981e-05 1.000000e+00  7.957747e-04  
-1.400000e+01  -6.000000e+00  -4.000000e+00  0  1044 0  9.890755e-04 -1.225425e-03 2.780853e-04   7.526537e-02 9.458125e+01 9.501641e-04 -1.021969e-03 1.434497e-04 2.448834e-02 2.841520e-08 2.717220e-08 2.888135e-08 5.869002e-04 3.909136e-02 -2.866690e-05 1.000000e+00  7.957747e-04  
-1.400000e+01  -6.000000e+00  -3.000000e+00  0  1253 0  2.722115e-03 6.372999e-04 -1.130176e-04   7.599151e-02 9.549375e+01 2.847372e-04 -6.876300e-04 2.089357e-04 2.478630e-02 2.886294e-08 2.805404e-08 2.905446e-08 -3.604661e-04 3.917307e-02 1.932794e-04 1.000000e+00  7.957747e-04  
-1.300000e+01  -6.000000e+00  -4.000000e+00  0  2327 0  -4.062282e-03 7.890166e-04 -1.014526e-06   7.614072e-02 9.568125e+01 1.257991e-03 -8.178994e-04 2.595030e-04 2.508913e-02 2.997096e-08 2.911606e-08 3.014605e-08 4.616773e-04 3.966968e-02 2.150497e-04 1.000000e+00  7.957747e-04  
-1.300000e+01  -6.000000e+00  -3.000000e+00  0  2503 0  2.449392e-04 -1.438827e-03 -2.415774e-03   7.757809e-02 9.748750e+01 6.418814e-04 -2.072281e-04 2.424067e-04 2.557097e-02 3.093257e-08 3.003226e-08 3.109230e-08 -4.052627e-05 4.002141e-02 -3.654182e-05 1.000000e+00  7.957747e-04  
-1.200000e+01  -6.000000e+00  -4.000000e+00  0  2328 0  -1.431477e-06 -6.369520e-04 1.145831e-03   7.414134e-02 9.316875e+01 1.344615e-03 -4.098168e-04 2.839754e-04 2.537708e-02 3.082606e-08 3.120182e-08 3.032401e-08 7.500762e-04 4.061161e-02 2.598806e-04 1.000000e+00  7.957747e-04  
-1.200000e+01  -6.000000e+00  -3.000000e+00  0  2504 0  -1.369441e-03 2.063513e-04 -6.796425e-04   7.796105e-02 9.796875e+01 1.832206e-03 -3.992678e-04 2.230990e-04 2.549201e-02 3.089558e-08 2.983625e-08 3.108244e-08 5.083991e-04 4.052554e-02 -2.254476e-04 1.000000e+00  7.957747e-04  
-1.100000e+01  -6.000000e+00  -4.000000e+00  0  2329 0  -2.663022e-03 9.720837e-04 -7.505147e-06   7.447457e-02 9.358750e+01 2.330610e-03 -5.123742e-04 2.762621e-04 2.502990e-02 2.971290e-08 2.992365e-08 2.937747e-08 8.230874e-04 4.195042e-02 -5.834230e-04 1.000000e+00  7.957747e-04  
-1.100000e+01  -6.000000e+00  -3.000000e+00  0  2505 0  6.412828e-04 9.731433e-04 -4.487013e-04   8.044288e-02 1.010875e+02 2.745603e-03 -8.624731e-04 1.872867e-04 2.524456e-02 2.996168e-08 3.013460e-08 2.968726e-08 3.929873e-04 4.140648e-02 -5.928166e-04 1.000000e+00  7.957747e-04  
-1.000000e+01  -6.000000e+00  -4.000000e+00  0  2330 0  -1.063650e-04 -1.133097e-03 -2.252822e-03   7.917958e-02 9.950000e+01 2.837363e-03 -5.594917e-04 3.857928e-04 2.497252e-02 2.888387e-08 2.854196e-08 2.884427e-08 4.464275e-04 4.232775e-02 -3.035280e-04 1.000000e+00  7.957747e-04  
-1.000000e+01  -6.000000e+00  -3.000000e+00  0  2506 0  -1.160605e-03 -1.432912e-04 5.342967e-04   8.295454e-02 1.042438e+02 3.082425e-03 1.808931e-04 6.773454e-04 2.526072e-02 2.955510e-08 3.008148e-08 2.904057e-08 -5.017841e-04 4.194859e-02 1.400811e-04 1.000000e+00  7.957747e-04  
-9.000000e+00  -6.000000e+00  -4.000000e+00  0  2331 0  -3.471827e-03 -2.056328e-04 1.403149e-03   8.203940e-02 1.030938e+02 3.271207e-03 -3.875357e-04 -1.851866e-04 2.549597e-02 2.985734e-08 2.937786e-08 2.984506e-08 1.447338e-04 4.220949e-02 6.464009e-04 1.000000e+00  7.957747e-04  
-9.000000e+00  -6.000000e+00  -3.000000e+00  0  2507 0  1.420458e-03 -4.917517e-04 -2.474538e-03   8.192003e-02 1.029437e+02 3.750853e-03 6.213958e-04 8.647118e-04 2.574096e-02 3.052438e-08 2.852108e-08 3.117682e-08 -3.444299e-04 4.186100e-02 5.845981e-04 1.000000e+00  7.957747e-04  
-8.000000e+00  -6.000000e+00  -4.000000e+00  0  2332 0  2.501717e-04 -4.907328e-04 -1.526549e-03   8.033346e-02 1.009500e+02 4.241935e-03 -4.608931e-04 3.160531e-04 2.585232e-02 3.070913e-08 3.106279e-08 3.024751e-08 2.381832e-04 4.339803e-02 -1.833336e-04 1.000000e+00  7.957747e-04  
-8.000000e+00  -6.000000e+00  -3.000000e+00  0  2508 0  -1.844562e-03 -2.389008e-04 -7.269422e-04   8.291475e-02 1.041937e+02 4.733526e-03 -2.992875e-04 1.673317e-04 2.640246e-02 3.207380e-08 2.975819e-08 3.277428e-08 3.499337e-04 4.287104e-02 -4.160544e-04 1.000000e+00  7.957747e-04  
-7.000000e+00  -6.000000e+00  -4.000000e+00  0  2333 0  -2.228023e-03 -1.011465e-03 -1.590687e-03   8.066669e-02 1.013688e+02 4.800619e-03 -5.483720e-04 7.676445e-04 2.598790e-02 3.094261e-08 3.084093e-08 3.077627e-08 3.057157e-04 4.391377e-02 2.517668e-04 1.000000e+00  7.957747e-04  
-7.000000e+00  -6.000000e+00  -3.000000e+00  0  2509 0  2.280887e-03 -3.525462e-06 5.279996e-04   8.322809e-02 1.045875e+02 5.135693e-03 -3.862007e-04 2.365977e-04 2.655973e-02 3.213760e-08 3.110877e-08 3.226258e-08 1.899997e-04 4.336125e-02 3.418602e-05 1.000000e+00  7.957747e-04  
-6.000000e+00  -6.000000e+00  -4.000000e+00  0  2334 0  1.636251e-03 2.334613e-03 -6.096020e-04   8.380502e-02 1.053125e+02 4.831500e-03 -5.488571e-05 1.325170e-04 2.564161e-02 3.018547e-08 2.970157e-08 3.026244e-08 2.594747e-05 4.330555e-02 5.065276e-04 1.000000e+00  7.957747e-04  
-6.000000e+00  -6.000000e+00  -3.000000e+00  0  2510 0  7.213011e-04 -6.473022e-04 4.411732e-04   8.616251e-02 1.082750e+02 5.299729e-03 3.941432e-04 7.370798e-04 2.571570e-02 2.986699e-08 2.972750e-08 2.965472e-08 -1.344427e-04 4.320271e-02 6.768569e-04 1.000000e+00  7.957747e-04  
-5.000000e+00  -6.000000e+00  -4.000000e+00  0  2335 0  -1.374856e-03 -2.660514e-03 2.298947e-04   8.322311e-02 1.045812e+02 4.610693e-03 7.483960e-04 3.211222e-05 2.553773e-02 3.020286e-08 2.912928e-08 3.053029e-08 -4.807942e-04 4.332578e-02 -3.346371e-04 1.000000e+00  7.957747e-04  
-5.000000e+00  -6.000000e+00  -3.000000e+00  0  2511 0  2.145420e-03 2.758567e-03 4.959020e-04   8.849015e-02 1.112000e+02 5.162438e-03 4.783417e-04 -9.821004e-05 2.547602e-02 2.974192e-08 2.777006e-08 3.048623e-08 -3.232083e-04 4.347520e-02 4.255836e-04 1.000000e+00  7.957747e-04  
-4.000000e+00  -6.000000e+00  -4.000000e+00  0  2336 0  -7.588683e-04 -4.653702e-04 -7.229637e-04   8.056722e-02 1.012438e+02 4.966892e-03 6.936007e-04 6.101483e-05 2.563473e-02 3.029408e-08 2.823585e-08 3.115271e-08 -6.712538e-04 4.363638e-02 -2.774812e-04 1.000000e+00  7.957747e-04  
-4.000000e+00  -6.000000e+00  -3.000000e+00  0  2512 0  3.427326e-03 -4.830141e-04 -5.746923e-04   8.362598e-02 1.050875e+02 4.452735e-03 2.309554e-04 -3.980035e-04 2.577366e-02 3.095923e-08 2.733469e-08 3.262582e-08 -1.065146e-04 4.395414e-02 -2.762741e-04 1.000000e+00  7.957747e-04  
-3.000000e+00  -6.000000e+00  -4.000000e+00  0  2337 0  3.820233e-03 1.089880e-03 -9.381674e-04   8.160670e-02 1.025500e+02 4.809857e-03 -2.680642e-04 1.104080e-04 2.580517e-02 3.052597e-08 2.879880e-08 3.123699e-08 -1.551843e-04 4.378739e-02 -3.166292e-04 1.000000e+00  7.957747e-04  
-3.000000e+00  -6.000000e+00  -3.000000e+00  0  2513 0  -2.480639e-03 1.644014e-04 -2.631800e-04   8.228311e-02 1.034000e+02 4.345467e-03 -3.168364e-04 1.085001e-04 2.572996e-02 3.070666e-08 2.901139e-08 3.138454e-08 1.551038e-04 4.430941e-02 -2.728727e-04 1.000000e+00  7.957747e-04  
-2.000000e+00  -6.000000e+00  -4.000000e+00  0  2338 0  -1.319830e-03 -3.713688e-04 -1.580620e-03   8.052743e-02 1.011937e+02 4.104846e-03 -1.271117e-04 3.544648e-04 2.573950e-02 3.053918e-08 2.870665e-08 3.128585e-08 3.101091e-04 4.333621e-02 -2.991137e-04 1.000000e+00  7.957747e-04  
-2.000000e+00  -6.000000e+00  -3.000000e+00  0  2514 0  8.603307e-04 2.896661e-04 4.393248e-05   8.466048e-02 1.063875e+02 3.898821e-03 -1.904274e-06 -1.120842e-04 2.556771e-02 3.017046e-08 2.861107e-08 3.071336e-08 1.619517e-05 4.404252e-02 3.729498e-05 1.000000e+00  7.957747e-04  
-1.000000e+00  -6.000000e+00  -4.000000e+00  0  2339 0  -1.722925e-03 -4.555356e-04 1.734862e-04   7.660824e-02 9.626875e+01 3.722391e-03 5.512281e-04 1.905565e-04 2.523091e-02 2.949938e-08 2.704318e-08 3.048244e-08 1.958327e-04 4.291396e-02 -9.422454e-05 1.000000e+00  7.957747e-04  
-1.000000e+00  -6.000000e+00  -3.000000e+00  0  2515 0  7.640705e-04 -1.604390e-03 2.444846e-04   7.958742e-02 1.000125e+02 2.993048e-03 3.262910e-04 -1.418598e-04 2.493249e-02 2.898220e-08 2.620091e-08 3.013081e-08 8.765592e-05 4.314464e-02 -9.310051e-05 1.000000e+00  7.957747e-04  
0.000000e+00  -6.000000e+00  -4.000000e+00  0  2340 0  -1.949031e-03 1.793157e-03 3.590191e-04   7.570802e-02 9.513750e+01 2.900064e-03 7.835175e-04 -4.239388e-04 2.485684e-02 2.865121e-08 2.905698e-08 2.808490e-08 1.614041e-04 4.230648e-02 3.907488e-06 1.000000e+00  7.957747e-04  
0.000000e+00  -6.000000e+00  -3.000000e+00  0  2516 0  4.677064e-04 -5.957962e-04 4.929845e-04   7.688178e-02 9.661250e+01 2.536559e-03 6.497322e-05 -1.913269e-04 2.446820e-02 2.799136e-08 2.693212e-08 2.825614e-08 9.613861e-05 4.210975e-02 -5.554019e-05 1.000000e+00  7.957747e-04  
-1.500000e+01  -5.000000e+00  -4.000000e+00  0  3320 0  1.740697e-04 6.516224e-05 3.772971e-04   7.149538e-02 8.984375e+01 -1.392650e-03 -1.430886e-04 -4.423187e-04 2.424643e-02 2.756386e-08 2.568221e-08 2.806685e-08 -7.641964e-05 3.848236e-02 -4.758474e-05 1.000000e+00  7.957747e-04  