VARIABLES="X", "Y", "Z", "Maximum Refinment Level", "Temp_ID", "Thread","Ex (corner node)","Ey (corner node)","Ez (corner node)", "Number Density[1/m^3]", "Particle Number", "Vx [m/s]", "Vy [m/s]", "Vz [m/s]", "|V| [m/s]", "Translational Temperature [K]", "Parallel Translational Temperature [K]", "Tangential Translational Temperature [K]","Bx (center node)","By (center node)","Bz (center node)", "Local Time Step" , "log10(Local Particle Weight)" 
ZONE N=5049, E=4096, DATAPACKING=POINT, ZONETYPE=FEBRICK
-1.600000e+01  -8.000000e+00  -4.000000e+00  0  301 0  6.624193e-04 -1.130621e-03 3.047709e-04   6.982426e-02 8.774375e+01 -3.250552e-03 -1.963869e-04 -1.179737e-04 1.174938e-01 2.649555e-08 2.591722e-08 2.673899e-08 -3.361946e-05 3.840093e-02 -4.785742e-04 1.000000e+00  7.957747e-04  
-1.500000e+01  -8.000000e+00  -4.000000e+00  0  302 0  1.510781e-03 1.063551e-03 1.744419e-03   6.964521e-02 8.751875e+01 -1.536463e-03 4.796192e-05 -5.840890e-04 1.190485e-01 2.702923e-08 2.688814e-08 2.705657e-08 1.449752e-04 3.854853e-02 -4.107489e-04 1.000000e+00  7.957747e-04  
-1.500000e+01  -7.000000e+00  -4.000000e+00  0  321 0  5.170823e-04 -3.574091e-04 9.240061e-04   7.323117e-02 9.202500e+01 -2.156360e-03 -9.201893e-05 -2.660258e-04 1.182770e-01 2.687262e-08 2.682668e-08 2.686328e-08 4.340139e-04 3.877280e-02 -1.072322e-04 1.000000e+00  7.957747e-04  
-1.600000e+01  -7.000000e+00  -4.000000e+00  0  320 0  2.235231e-03 3.333167e-04 1.427176e-03   7.099803e-02 8.921875e+01 -3.392017e-03 1.008830e-03 -8.960511e-04 1.187427e-01 2.687227e-08 2.647876e-08 2.704092e-08 1.479663e-04 3.821679e-02 -4.721791e-04 1.000000e+00  7.957747e-04  
-1.600000e+01  -8.000000e+00  -3.000000e+00  0  548 0  3.207517e-03 3.321807e-04 1.556004e-03   7.018236e-02 8.819375e+01 -1.779077e-03 -1.674066e-04 -4.093823e-04 1.177431e-01 2.664957e-08 2.571115e-08 2.709226e-08 -2.546060e-04 3.775885e-02 -7.180617e-04 1.000000e+00  7.957747e-04  
-1.500000e+01  -8.000000e+00  -3.000000e+00  0  549 0  -3.667309e-03 -1.642489e-03 2.918991e-03   7.333561e-02 9.215625e+01 -8.063570e-04 3.437410e-04 -1.017050e-03 1.189253e-01 2.718362e-08 2.669957e-08 2.737972e-08 1.274684e-04 3.824025e-02 -3.479259e-04 1.000000e+00  7.957747e-04  
-1.500000e+01  -7.000000e+00  -3.000000e+00  0  568 0  -4.309336e-04 7.509384e-04 1.301128e-03   7.360916e-02 9.250000e+01 -1.766159e-03 4.138832e-06 -5.361479e-04 1.207512e-01 2.804031e-08 2.814554e-08 2.796077e-08 -6.262433e-04 3.810786e-02 -4.347098e-04 1.000000e+00  7.957747e-04  
-1.600000e+01  -7.000000e+00  -3.000000e+00  0  567 0  -2.892752e-03 1.108616e-03 1.780362e-03   7.044596e-02 8.852500e+01 -2.573704e-03 -2.459097e-06 -2.848945e-04 1.193157e-01 2.721566e-08 2.676137e-08 2.740957e-08 -6.536856e-04 3.748294e-02 -4.740253e-04 1.000000e+00  7.957747e-04  
-1.400000e+01  -8.000000e+00  -4.000000e+00  0  303 0  -1.501592e-03 1.024865e-03 -7.554836e-04   7.197285e-02 9.044375e+01 2.292296e-04 -4.079518e-04 -1.244354e-03 1.224701e-01 2.855557e-08 2.858279e-08 2.844662e-08 -1.570236e-04 3.925023e-02 -3.536095e-04 1.000000e+00  7.957747e-04  
-1.400000e+01  -7.000000e+00  -4.000000e+00  0  322 0  1.806165e-03 -1.725430e-03 1.895059e-03   7.403192e-02 9.303125e+01 1.380003e-04 -2.503711e-04 -8.875138e-04 1.222110e-01 2.859066e-08 2.877442e-08 2.845880e-08 3.502251e-04 3.937932e-02 -1.864981e-04 1.000000e+00  7.957747e-04  
-1.400000e+01  -8.000000e+00  -3.000000e+00  0  550 0  -6.606214e-04 -9.427461e-04 2.153664e-04   7.322619e-02 9.201875e+01 1.061204e-04 2.315552e-03 -1.394542e-03 1.219860e-01 2.859789e-08 2.865087e-08 2.851208e-08 1.765323e-04 3.951942e-02 -1.240835e-04 1.000000e+00  7.957747e-04  
-1.400000e+01  -7.000000e+00  -3.000000e+00  0  569 0  -1.316737e-03 2.574462e-03 -6.354893e-04   7.476801e-02 9.395625e+01 -3.805114e-04 7.717141e-04 -1.503446e-03 1.240166e-01 2.931000e-08 2.965160e-08 2.911375e-08 -2.978868e-04 3.946175e-02 -3.062913e-04 1.000000e+00  7.957747e-04  
-1.300000e+01  -8.000000e+00  -4.000000e+00  0  1969 0  -6.334290e-04 -1.667495e-03 5.594750e-04   7.600146e-02 9.550625e+01 1.346942e-03 -7.245113e-04 -7.594210e-04 1.223827e-01 2.866752e-08 2.833494e-08 2.873661e-08 -3.646695e-04 3.982757e-02 -8.396138e-04 1.000000e+00  7.957747e-04  
-1.300000e+01  -7.000000e+00  -4.000000e+00  0  1985 0  -7.793076e-04 1.006173e-04 6.377454e-04   7.659332e-02 9.625000e+01 1.125982e-03 -1.443971e-04 -1.598417e-03 1.227391e-01 2.885869e-08 2.886923e-08 2.880932e-08 2.242125e-04 3.985142e-02 -3.027715e-04 1.000000e+00  7.957747e-04  
-1.300000e+01  -8.000000e+00  -3.000000e+00  0  2177 0  1.975466e-04 2.199904e-03 4.431105e-04   7.515097e-02 9.443750e+01 5.574875e-04 1.248339e-03 -6.319157e-04 1.231552e-01 2.916910e-08 2.926860e-08 2.905811e-08 -4.304917e-04 4.059891e-02 -8.124475e-04 1.000000e+00  7.957747e-04  
-1.300000e+01  -7.000000e+00  -3.000000e+00  0  2193 0  2.609400e-03 -2.627895e-03 -6.329958e-05   7.636453e-02 9.596250e+01 3.829473e-04 1.049549e-03 -1.469042e-03 1.243201e-01 2.926896e-08 2.970910e-08 2.902631e-08 1.152618e-04 4.068944e-02 -9.792905e-05 1.000000e+00  7.957747e-04  
-1.200000e+01  -8.000000e+00  -4.000000e+00  0  1970 0  7.744439e-04 1.100796e-03 -2.387830e-03   7.548421e-02 9.485625e+01 2.292700e-03 -1.685834e-03 -3.776006e-04 1.208644e-01 2.787759e-08 2.757112e-08 2.797746e-08 -3.216066e-04 4.096301e-02 -9.909635e-05 1.000000e+00  7.957747e-04  
-1.200000e+01  -7.000000e+00  -4.000000e+00  0  1986 0  3.562414e-03 -3.737372e-04 -8.069917e-04   7.351964e-02 9.238750e+01 1.480960e-03 -1.261146e-03 -1.508668e-03 1.212108e-01 2.819676e-08 2.807066e-08 2.818857e-08 1.040615e-04 4.066989e-02 -7.535061e-05 1.000000e+00  7.957747e-04  
-1.200000e+01  -8.000000e+00  -3.000000e+00  0  2178 0  -3.729504e-03 -1.280962e-04 6.547041e-04   7.499679e-02 9.424375e+01 1.240483e-03 -1.048667e-03 4.923843e-04 1.228408e-01 2.907055e-08 2.905313e-08 2.905271e-08 -5.938602e-04 4.118243e-02 1.587815e-04 1.000000e+00  7.957747e-04  
-1.200000e+01  -7.000000e+00  -3.000000e+00  0  2194 0  1.745286e-04 -1.329875e-03 1.557214e-03   7.548421e-02 9.485625e+01 1.290688e-03 7.938404e-05 -9.052768e-04 1.230312e-01 2.915916e-08 2.955366e-08 2.892895e-08 3.350058e-04 4.082194e-02 -5.288812e-06 1.000000e+00  7.957747e-04  
-1.100000e+01  -8.000000e+00  -4.000000e+00  0  1971 0  2.854833e-04 -5.656709e-04 1.092307e-03   7.610093e-02 9.563125e+01 2.314970e-03 5.100979e-04 5.787180e-04 1.244687e-01 2.946328e-08 2.961857e-08 2.932982e-08 -3.333684e-04 4.124762e-02 4.420558e-04 1.000000e+00  7.957747e-04  
-1.100000e+01  -7.000000e+00  -4.000000e+00  0  1987 0  -1.542048e-03 -1.049301e-03 -2.005021e-04   7.463372e-02 9.378750e+01 1.979054e-03 -2.090747e-04 -3.424972e-04 1.245716e-01 2.949168e-08 2.978579e-08 2.926202e-08 4.592526e-04 4.163108e-02 -2.657144e-04 1.000000e+00  7.957747e-04  
-1.100000e+01  -8.000000e+00  -3.000000e+00  0  2179 0  -8.716117e-04 4.255928e-04 5.243665e-04   7.623024e-02 9.579375e+01 2.233768e-03 1.834868e-03 7.790828e-04 1.263481e-01 3.047549e-08 3.059072e-08 3.038901e-08 -5.903270e-05 4.129534e-02 3.230996e-04 1.000000e+00  7.957747e-04  
-1.100000e+01  -7.000000e+00  -3.000000e+00  0  2195 0  1.665320e-03 -1.114040e-03 -1.041270e-03   7.796105e-02 9.796875e+01 3.127876e-03 7.250775e-04 -5.136487e-04 1.250973e-01 3.007927e-08 3.042165e-08 2.986602e-08 3.053518e-04 4.085103e-02 -6.088372e-04 1.000000e+00  7.957747e-04  
-1.000000e+01  -8.000000e+00  -4.000000e+00  0  1972 0  3.124664e-03 -3.794604e-05 -3.275994e-03   8.145749e-02 1.023625e+02 3.422594e-03 1.765138e-03 -9.795047e-04 1.264352e-01 3.043987e-08 3.072169e-08 3.026966e-08 -2.239186e-04 4.166611e-02 -9.488176e-05 1.000000e+00  7.957747e-04  
-1.000000e+01  -7.000000e+00  -4.000000e+00  0  1988 0  -5.476584e-03 1.415794e-03 -3.030030e-03   8.098002e-02 1.017625e+02 2.681236e-03 1.671070e-03 -7.899617e-04 1.253026e-01 2.986795e-08 3.028069e-08 2.962331e-08 3.160291e-04 4.200802e-02 8.011183e-05 1.000000e+00  7.957747e-04  
-1.000000e+01  -8.000000e+00  -3.000000e+00  0  2180 0  -2.647144e-03 2.544042e-03 1.419164e-03   8.006488e-02 1.006125e+02 3.504032e-03 1.123407e-03 -5.825882e-04 1.275561e-01 3.089713e-08 3.096290e-08 3.080639e-08 3.568921e-04 4.179695e-02 -9.471335e-05 1.000000e+00  7.957747e-04  
-1.000000e+01  -7.000000e+00  -3.000000e+00  0  2196 0  1.862594e-03 -1.674073e-03 2.878499e-03   8.376524e-02 1.052625e+02 3.649343e-03 1.796361e-04 -3.281316e-04 1.270523e-01 3.064766e-08 3.089043e-08 3.047240e-08 -3.577141e-05 4.163220e-02 3.846818e-04 1.000000e+00  7.957747e-04  
-9.000000e+00  -8.000000e+00  -4.000000e+00  0  1973 0  -1.893315e-03 3.039445e-04 -3.630181e-04   8.291973e-02 1.042000e+02 3.439832e-03 3.126208e-04 -1.412357e-03 1.271785e-01 3.054797e-08 3.044528e-08 3.055854e-08 -1.033381e-04 4.294644e-02 -6.110040e-04 1.000000e+00  7.957747e-04  
-9.000000e+00  -7.000000e+00  -4.000000e+00  0  1989 0  -2.849327e-04 2.469239e-05 1.335676e-03   7.946308e-02 9.985625e+01 2.958445e-03 5.682391e-04 -1.011696e-03 1.244782e-01 2.947088e-08 2.954903e-08 2.939973e-08 -1.827908e-05 4.254271e-02 -1.764732e-04 1.000000e+00  7.957747e-04  
-9.000000e+00  -8.000000e+00  -3.000000e+00  0  2181 0  1.905605e-03 8.393211e-06 1.726790e-03   8.083082e-02 1.015750e+02 3.997092e-03 -1.968123e-03 -6.465178e-04 1.267787e-01 3.046699e-08 3.059398e-08 3.035964e-08 2.672638e-04 4.269978e-02 -6.003612e-04 1.000000e+00  7.957747e-04  
-9.000000e+00  -7.000000e+00  -3.000000e+00  0  2197 0  -2.166613e-04 2.491154e-04 2.368079e-03   8.283020e-02 1.040875e+02 3.732572e-03 -1.314725e-03 2.560903e-04 1.273164e-01 3.071169e-08 3.092178e-08 3.056464e-08 2.184574e-05 4.245138e-02 2.288496e-04 1.000000e+00  7.957747e-04  
-8.000000e+00  -8.000000e+00  -4.000000e+00  0  1974 0  -4.733248e-03 1.162884e-03 2.924908e-04   7.846836e-02 9.860625e+01 2.492606e-03 8.051002e-05 -4.110737e-04 1.300828e-01 3.208035e-08 3.119815e-08 3.245629e-08 2.516217e-04 4.326680e-02 -6.026604e-04 1.000000e+00  7.957747e-04  
-8.000000e+00  -7.000000e+00  -4.000000e+00  0  1990 0  -2.429377e-03 -1.341762e-03 1.763220e-03   7.538473e-02 9.473125e+01 3.476702e-03 1.472930e-04 -8.177703e-04 1.264662e-01 3.058026e-08 2.989024e-08 3.088780e-08 1.384812e-04 4.302282e-02 -5.545009e-04 1.000000e+00  7.957747e-04  
-8.000000e+00  -8.000000e+00  -3.000000e+00  0  2182 0  3.205539e-03 -4.865519e-04 -2.886844e-04   8.061695e-02 1.013063e+02 3.876679e-03 1.990966e-05 -1.714028e-04 1.276957e-01 3.105180e-08 3.064111e-08 3.120947e-08 -1.841036e-04 4.311660e-02 -5.116986e-04 1.000000e+00  7.957747e-04  
-8.000000e+00  -7.000000e+00  -3.000000e+00  0  2198 0  -3.179893e-05 5.417854e-04 -3.768549e-04   8.113918e-02 1.019625e+02 4.547834e-03 -2.071887e-04 7.204531e-04 1.278191e-01 3.122322e-08 3.099138e-08 3.131126e-08 2.548768e-05 4.301188e-02 -1.245903e-04 1.000000e+00  7.957747e-04  
-7.000000e+00  -8.000000e+00  -4.000000e+00  0  1975 0  3.044969e-03 -8.502221e-04 2.711510e-03   7.695141e-02 9.670000e+01 3.284512e-03 2.722900e-04 -4.933362e-04 1.299345e-01 3.258086e-08 3.209404e-08 3.274477e-08 3.543613e-04 4.298097e-02 7.873504e-05 1.000000e+00  7.957747e-04  
-7.000000e+00  -7.000000e+00  -4.000000e+00  0  1991 0  1.982488e-03 -1.604809e-03 3.569793e-04   7.811524e-02 9.816250e+01 3.328274e-03 -1.035389e-04 -3.422857e-04 1.272442e-01 3.145520e-08 3.108874e-08 3.159188e-08 1.390502e-04 4.314148e-02 -2.570827e-05 1.000000e+00  7.957747e-04  
-7.000000e+00  -8.000000e+00  -3.000000e+00  0  2183 0  2.478188e-04 -2.195345e-03 -1.859021e-03   8.075621e-02 1.014813e+02 4.998188e-03 -4.562016e-04 2.901925e-04 1.291710e-01 3.221439e-08 3.148715e-08 3.251981e-08 -4.329625e-04 4.331557e-02 -1.538047e-04 1.000000e+00  7.957747e-04  
-7.000000e+00  -7.000000e+00  -3.000000e+00  0  2199 0  1.626166e-03 -2.080019e-04 -3.391750e-03   8.415815e-02 1.057562e+02 4.512238e-03 1.697502e-04 3.236077e-04 1.280812e-01 3.190112e-08 3.144935e-08 3.207416e-08 -1.226186e-04 4.331987e-02 1.635076e-04 1.000000e+00  7.957747e-04  
-6.000000e+00  -8.000000e+00  -4.000000e+00  0  1976 0  2.831673e-03 6.960428e-04 -9.484790e-04   8.026383e-02 1.008625e+02 4.780003e-03 -2.565147e-05 9.977109e-06 1.283378e-01 3.154831e-08 3.172254e-08 3.141369e-08 2.012199e-04 4.288706e-02 3.462466e-04 1.000000e+00  7.957747e-04  
-6.000000e+00  -7.000000e+00  -4.000000e+00  0  1992 0  1.507858e-03 2.293715e-03 3.192191e-04   8.573975e-02 1.077438e+02 3.908664e-03 -2.246282e-04 4.642633e-04 1.280145e-01 3.152071e-08 3.139365e-08 3.155171e-08 3.074184e-06 4.319518e-02 -1.882580e-04 1.000000e+00  7.957747e-04  
-6.000000e+00  -8.000000e+00  -3.000000e+00  0  2184 0  -1.699482e-03 1.098556e-03 -2.709284e-03   8.151220e-02 1.024313e+02 5.444145e-03 -1.210403e-04 3.199721e-04 1.300593e-01 3.236195e-08 3.116091e-08 3.291010e-08 3.694683e-05 4.356511e-02 -5.866010e-04 1.000000e+00  7.957747e-04  
-6.000000e+00  -7.000000e+00  -3.000000e+00  0  2200 0  -3.962819e-03 -2.045093e-03 7.248825e-05   8.498377e-02 1.067938e+02 4.583146e-03 8.037358e-04 -5.095891e-05 1.291147e-01 3.207063e-08 3.100025e-08 3.256064e-08 2.096495e-04 4.357865e-02 -2.116233e-04 1.000000e+00  7.957747e-04  
-5.000000e+00  -8.000000e+00  -4.000000e+00  0  1977 0  -9.680249e-04 2.152866e-03 -2.970742e-03   7.741396e-02 9.728125e+01 5.949730e-03 5.678471e-04 -2.960454e-05 1.261974e-01 3.016050e-08 2.990893e-08 3.025844e-08 5.059917e-04 4.372053e-02 -1.493969e-04 1.000000e+00  7.957747e-04  
-5.000000e+00  -7.000000e+00  -4.000000e+00  0  1993 0  -8.445460e-04 7.034919e-04 -4.811974e-04   8.113918e-02 1.019625e+02 5.340663e-03 6.527264e-04 -1.167324e-04 1.279855e-01 3.115529e-08 3.059328e-08 3.140256e-08 -4.435533e-04 4.363159e-02 -4.932505e-04 1.000000e+00  7.957747e-04  
-5.000000e+00  -8.000000e+00  -3.000000e+00  0  2185 0  5.209086e-04 -3.857035e-04 1.554699e-03   8.278046e-02 1.040250e+02 5.059799e-03 1.521278e-03 -2.906950e-04 1.265246e-01 3.033489e-08 2.904695e-08 3.096214e-08 4.969412e-04 4.355023e-02 -4.455818e-04 1.000000e+00  7.957747e-04  
-5.000000e+00  -7.000000e+00  -3.000000e+00  0  2201 0  1.265476e-04 3.216641e-05 8.394724e-04   8.580441e-02 1.078250e+02 5.161956e-03 1.063027e-03 -2.915721e-04 1.269766e-01 3.069338e-08 2.941899e-08 3.131539e-08 3.210645e-04 4.354537e-02 1.017216e-04 1.000000e+00  7.957747e-04  
-4.000000e+00  -8.000000e+00  -4.000000e+00  0  1978 0  -9.641556e-04 -1.491920e-03 1.644667e-04   7.531013e-02 9.463750e+01 5.475869e-03 -1.235570e-03 -3.182799e-04 1.239653e-01 2.929733e-08 2.886449e-08 2.945460e-08 8.792895e-04 4.427144e-02 6.383457e-04 1.000000e+00  7.957747e-04  
-4.000000e+00  -7.000000e+00  -4.000000e+00  0  1994 0  1.994036e-04 -3.892652e-04 -1.433952e-03   7.805058e-02 9.808125e+01 5.800441e-03 -4.459579e-04 -5.637782e-04 1.262598e-01 3.044755e-08 2.977572e-08 3.074488e-08 -4.602075e-04 4.401787e-02 2.348527e-04 1.000000e+00  7.957747e-04  
-4.000000e+00  -8.000000e+00  -3.000000e+00  0  2186 0  -2.747500e-03 -2.099840e-04 -2.265505e-04   8.326788e-02 1.046375e+02 4.643229e-03 -2.539449e-04 -5.388217e-05 1.230214e-01 2.874373e-08 2.824126e-08 2.898434e-08 2.781507e-04 4.383675e-02 4.080064e-04 1.000000e+00  7.957747e-04  
-4.000000e+00  -7.000000e+00  -3.000000e+00  0  2202 0  8.697213e-04 1.840711e-04 1.324850e-03   8.543636e-02 1.073625e+02 5.118773e-03 -4.862954e-04 -5.654799e-04 1.243547e-01 2.950868e-08 2.899004e-08 2.974280e-08 -5.027784e-05 4.428360e-02 3.004037e-04 1.000000e+00  7.957747e-04  
-3.000000e+00  -8.000000e+00  -4.000000e+00  0  1979 0  -1.444775e-03 9.638990e-04 -7.296467e-04   7.861757e-02 9.879375e+01 4.773979e-03 -1.087447e-03 -2.510717e-06 1.244334e-01 2.963168e-08 2.901433e-08 2.989417e-08 7.092634e-04 4.391449e-02 4.935770e-04 1.000000e+00  7.957747e-04  
-3.000000e+00  -7.000000e+00  -4.000000e+00  0  1995 0  1.548434e-03 4.415491e-04 1.152490e-03   8.037822e-02 1.010062e+02 5.206236e-03 -1.713385e-04 1.404108e-04 1.258429e-01 3.035926e-08 2.986868e-08 3.057536e-08 -2.057871e-05 4.432520e-02 3.507081e-04 1.000000e+00  7.957747e-04  
-3.000000e+00  -8.000000e+00  -3.000000e+00  0  2187 0  -5.771625e-04 -5.565509e-05 -1.301308e-03   7.998531e-02 1.005125e+02 3.992122e-03 9.247131e-04 8.246825e-04 1.232959e-01 2.901025e-08 2.773481e-08 2.961872e-08 1.176558e-04 4.361979e-02 4.691385e-06 1.000000e+00  7.957747e-04  
-3.000000e+00  -7.000000e+00  -3.000000e+00  0  2203 0  -3.023402e-04 -1.636513e-03 -7.368964e-04   7.788148e-02 9.786875e+01 4.224759e-03 4.249446e-04 1.070398e-03 1.247239e-01 2.970401e-08 2.908623e-08 2.996612e-08 -3.747376e-04 4.415228e-02 8.325314e-05 1.000000e+00  7.957747e-04  
-2.000000e+00  -8.000000e+00  -4.000000e+00  0  1980 0  2.515985e-03 7.140955e-04 -1.942500e-04   7.821968e-02 9.829375e+01 4.768982e-03 2.335568e-03 6.414665e-04 1.247170e-01 2.967929e-08 2.859477e-08 3.020476e-08 5.871037e-04 4.431412e-02 1.697666e-04 1.000000e+00  7.957747e-04  
-2.000000e+00  -7.000000e+00  -4.000000e+00  0  1996 0  -1.613305e-05 1.152882e-04 -1.886486e-03   7.929895e-02 9.965000e+01 4.580260e-03 2.239103e-03 4.492764e-04 1.256634e-01 3.013858e-08 2.944507e-08 3.046786e-08 2.663053e-04 4.404323e-02 3.344706e-05 1.000000e+00  7.957747e-04  
-2.000000e+00  -8.000000e+00  -3.000000e+00  0  2188 0  -3.635941e-03 -1.135896e-04 -1.524248e-04   7.844847e-02 9.858125e+01 4.299367e-03 1.690712e-03 2.374040e-04 1.241865e-01 2.965820e-08 2.825662e-08 3.031419e-08 4.407247e-04 4.409356e-02 -9.324741e-05 1.000000e+00  7.957747e-04  
-2.000000e+00  -7.000000e+00  -3.000000e+00  0  2204 0  -1.103111e-04 -1.278392e-03 7.538666e-04   7.770740e-02 9.765000e+01 3.518725e-03 1.673666e-03 1.384028e-03 1.248264e-01 2.989905e-08 2.900746e-08 3.032070e-08 -4.617709e-04 4.407519e-02 -1.897348e-06 1.000000e+00  7.957747e-04  
-1.000000e+00  -8.000000e+00  -4.000000e+00  0  1981 0  -7.335096e-04 -2.648897e-04 -1.265466e-03   7.728465e-02 9.711875e+01 3.618394e-03 1.489082e-03 1.677616e-03 1.218530e-01 2.809547e-08 2.679751e-08 2.870837e-08 7.016876e-04 4.339952e-02 6.229411e-04 1.000000e+00  7.957747e-04  
-1.000000e+00  -7.000000e+00  -4.000000e+00  0  1997 0  1.286431e-04 -2.149926e-03 -1.334483e-03   7.843355e-02 9.856250e+01 4.520235e-03 9.723731e-04 1.049764e-03 1.239773e-01 2.918910e-08 2.770073e-08 2.990532e-08 5.891533e-04 4.327444e-02 -5.497003e-05 1.000000e+00  7.957747e-04  
-1.000000e+00  -8.000000e+00  -3.000000e+00  0  2189 0  -1.288288e-03 -7.349416e-04 8.207245e-04   7.827439e-02 9.836250e+01 4.036643e-03 -7.876134e-04 -1.923584e-05 1.228748e-01 2.868502e-08 2.750427e-08 2.922664e-08 7.333997e-04 4.320660e-02 3.444345e-04 1.000000e+00  7.957747e-04  
-1.000000e+00  -7.000000e+00  -3.000000e+00  0  2205 0  8.293559e-04 1.203542e-03 1.686800e-03   7.946308e-02 9.985625e+01 3.601317e-03 5.136888e-04 -7.325278e-04 1.246202e-01 2.947651e-08 2.829810e-08 3.004985e-08 -1.316528e-04 4.324901e-02 -1.664051e-04 1.000000e+00  7.957747e-04  
0.000000e+00  -8.000000e+00  -4.000000e+00  0  1982 0  -3.033524e-03 3.533904e-04 2.784295e-03   7.796603e-02 9.797500e+01 3.055714e-03 -9.556227e-04 7.525631e-04 1.193819e-01 2.728279e-08 2.647885e-08 2.763690e-08 5.380078e-04 4.201702e-02 9.170533e-05 1.000000e+00  7.957747e-04  
0.000000e+00  -7.000000e+00  -4.000000e+00  0  1998 0  -1.230843e-03 1.182912e-03 2.426579e-03   7.860762e-02 9.878125e+01 3.947593e-03 -9.483681e-04 6.448308e-04 1.222310e-01 2.858501e-08 2.771981e-08 2.898085e-08 4.742280e-04 4.231997e-02 -4.957506e-05 1.000000e+00  7.957747e-04  
0.000000e+00  -8.000000e+00  -3.000000e+00  0  2190 0  6.042584e-03 -2.312025e-04 8.369651e-04   7.929895e-02 9.965000e+01 2.729975e-03 -6.650558e-04 1.175197e-03 1.204728e-01 2.780000e-08 2.675736e-08 2.828731e-08 7.271646e-04 4.188520e-02 1.124261e-04 1.000000e+00  7.957747e-04  
0.000000e+00  -7.000000e+00  -3.000000e+00  0  2206 0  2.724374e-03 -2.086492e-03 -2.420157e-03   8.003504e-02 1.005750e+02 2.674008e-03 -4.140726e-04 3.820493e-04 1.221194e-01 2.856973e-08 2.767538e-08 2.898096e-08 1.826718e-04 4.194847e-02 6.610124e-06 1.000000e+00  7.957747e-04  
-1.500000e+01  -6.000000e+00  -4.000000e+00  0  340 0  -1.716325e-03 2.039400e-03 -1.639330e-03   7.470833e-02 9.388125e+01 -9.464688e-04 2.204574e-04 -7.156573e-04 1.184173e-01 2.695020e-08 2.700772e-08 2.688559e-08 6.474917e-04 3.875986e-02 -1.479836e-04 1.000000e+00  7.957747e-04  
-1.600000e+01  -6.000000e+00  -4.000000e+00  0  339 0  1.243970e-03 -1.610787e-04 1.366507e-03   7.270894e-02 9.136875e+01 -3.032117e-03 7.484393e-04 -1.737029e-03 1.202782e-01 2.743206e-08 2.722023e-08 2.750143e-08 4.863358e-04 3.764136e-02 -2.366730e-04 1.000000e+00  7.957747e-04  
-1.500000e+01  -6.000000e+00  -3.000000e+00  0  587 0  -2.211547e-03 -1.330964e-03 -5.642697e-04   7.547923e-02 9.485000e+01 -1.879854e-03 4.793353e-04 -9.817260e-04 1.208733e-01 2.814147e-08 2.847701e-08 2.793102e-08 -6.801351e-04 3.891704e-02 -1.199829e-04 1.000000e+00  7.957747e-04  
-1.600000e+01  -6.000000e+00  -3.000000e+00  0  586 0  -5.230667e-04 -9.457253e-05 -5.923631e-04   7.290788e-02 9.161875e+01 -3.074833e-03 1.205132e-03 -1.175614e-03 1.191736e-01 2.718155e-08 2.695975e-08 2.724826e-08 7.668855e-07 3.754798e-02 -1.493732e-05 1.000000e+00  7.957747e-04  
-1.400000e+01  -6.000000e+00  -4.000000e+00  0  341 0  3.230378e-03 -5.538751e-04 2.771286e-04   7.484261e-02 9.405000e+01 6.971982e-04 -2.909859e-04 -2.138297e-04 1.203067e-01 2.779398e-08 2.806608e-08 2.763684e-08 4.106003e-04 3.921778e-02 8.412999e-05 1.000000e+00  7.957747e-04  
-1.400000e+01  -6.000000e+00  -3.000000e+00  0  588 0  1.649775e-03 1.645597e-03 -6.172983e-04   7.531013e-02 9.463750e+01 -5.501406e-04 -2.897405e-04 -4.898837e-04 1.250762e-01 2.987166e-08 3.041365e-08 2.956901e-08 -7.096499e-04 3.916305e-02 1.892450e-04 1.000000e+00  7.957747e-04  
-1.300000e+01  -6.000000e+00  -4.000000e+00  0  2001 0  -2.473958e-03 -3.242752e-04 4.536587e-04   7.727967e-02 9.711250e+01 5.787670e-04 1.274053e-04 -4.593950e-04 1.224505e-01 2.869083e-08 2.866893e-08 2.866946e-08 4.511283e-04 3.991993e-02 2.591984e-04 1.000000e+00  7.957747e-04  
-1.300000e+01  -6.000000e+00  -3.000000e+00  0  2209 0  -1.822759e-03 -1.429460e-03 -3.572059e-03   7.712549e-02 9.691875e+01 1.765311e-04 1.100092e-03 -3.621414e-04 1.249341e-01 2.968672e-08 3.014897e-08 2.943412e-08 -1.527136e-04 4.021458e-02 5.101808e-05 1.000000e+00  7.957747e-04  
-1.200000e+01  -6.000000e+00  -4.000000e+00  0  2002 0  7.743292e-04 9.967608e-05 7.889341e-04   7.661818e-02 9.628125e+01 1.139384e-03 -2.078305e-04 -1.110172e-03 1.219349e-01 2.856044e-08 2.885424e-08 2.834260e-08 8.215534e-04 4.057137e-02 1.727882e-04 1.000000e+00  7.957747e-04  
-1.200000e+01  -6.000000e+00  -3.000000e+00  0  2210 0  -4.717014e-04 8.669801e-04 -1.200125e-03   7.789142e-02 9.788125e+01 1.713093e-03 -6.360418e-04 -1.325627e-03 1.225651e-01 2.897929e-08 2.970395e-08 2.856679e-08 5.043701e-04 4.053284e-02 -2.270697e-04 1.000000e+00  7.957747e-04  
-1.100000e+01  -6.000000e+00  -4.000000e+00  0  2003 0  -2.169542e-03 9.044894e-04 -4.099031e-04   7.456409e-02 9.370000e+01 1.967901e-03 -5.398150e-04 -1.589908e-03 1.227480e-01 2.880661e-08 2.952394e-08 2.838488e-08 8.747383e-04 4.209949e-02 -6.859823e-04 1.000000e+00  7.957747e-04  
-1.100000e+01  -6.000000e+00  -3.000000e+00  0  2211 0  1.224258e-04 1.762672e-03 -3.573824e-04   7.927408e-02 9.961875e+01 3.381172e-03 -5.739676e-04 -1.164009e-03 1.226589e-01 2.918909e-08 2.974232e-08 2.885235e-08 4.122057e-04 4.127613e-02 -8.054944e-04 1.000000e+00  7.957747e-04  
-1.000000e+01  -6.000000e+00  -4.000000e+00  0  2004 0  8.702815e-04 -2.699644e-03 -1.930715e-03   7.895080e-02 9.921250e+01 1.883325e-03 4.147318e-04 -9.778504e-04 1.257343e-01 3.002592e-08 3.045121e-08 2.978136e-08 4.699050e-04 4.249442e-02 -2.144509e-04 1.000000e+00  7.957747e-04  
-1.000000e+01  -6.000000e+00  -3.000000e+00  0  2212 0  -1.016363e-03 3.014374e-04 1.069166e-04   8.378513e-02 1.052875e+02 2.923012e-03 4.668422e-04 6.780086e-04 1.263459e-01 3.073751e-08 3.121292e-08 3.046143e-08 -6.160891e-04 4.199851e-02 1.148771e-04 1.000000e+00  7.957747e-04  
-9.000000e+00  -6.000000e+00  -4.000000e+00  0  2005 0  -4.302873e-03 9.096089e-04 2.201900e-03   8.375529e-02 1.052500e+02 1.979889e-03 -1.177841e-03 -2.958881e-04 1.251617e-01 2.999844e-08 3.035980e-08 2.978417e-08 5.497095e-05 4.208833e-02 6.958226e-04 1.000000e+00  7.957747e-04  
-9.000000e+00  -6.000000e+00  -3.000000e+00  0  2213 0  2.588942e-03 -1.178005e-03 -2.371497e-03   8.448143e-02 1.061625e+02 2.882419e-03 -5.996538e-04 9.876633e-04 1.276406e-01 3.139404e-08 3.197474e-08 3.105940e-08 -5.462281e-04 4.168682e-02 6.445963e-04 1.000000e+00  7.957747e-04  
-8.000000e+00  -6.000000e+00  -4.000000e+00  0  2006 0  1.315768e-03 -2.334150e-04 -2.416542e-03   7.862752e-02 9.880625e+01 3.377955e-03 -1.814522e-03 -4.636521e-04 1.254702e-01 3.014560e-08 3.011824e-08 3.012957e-08 2.304310e-04 4.294588e-02 -1.978269e-04 1.000000e+00  7.957747e-04  
-8.000000e+00  -6.000000e+00  -3.000000e+00  0  2214 0  -2.900571e-03 7.830220e-05 -1.321565e-03   8.190014e-02 1.029188e+02 4.282985e-03 -8.509157e-04 7.348317e-04 1.272374e-01 3.110861e-08 3.130499e-08 3.096414e-08 3.244717e-04 4.264714e-02 -5.277846e-04 1.000000e+00  7.957747e-04  
-7.000000e+00  -6.000000e+00  -4.000000e+00  0  2007 0  -3.836579e-05 -2.100013e-04 1.990168e-04   7.818984e-02 9.825625e+01 4.350491e-03 -2.575699e-04 1.090908e-04 1.260023e-01 3.039913e-08 3.010856e-08 3.051848e-08 5.003204e-04 4.362537e-02 3.404110e-04 1.000000e+00  7.957747e-04  
-7.000000e+00  -6.000000e+00  -3.000000e+00  0  2215 0  -1.051681e-03 1.085452e-03 -9.376972e-04   8.373539e-02 1.052250e+02 4.766038e-03 -5.934139e-05 3.322319e-04 1.261765e-01 3.081996e-08 3.061690e-08 3.088757e-08 2.177486e-04 4.333358e-02 -2.032197e-05 1.000000e+00  7.957747e-04  
-6.000000e+00  -6.000000e+00  -4.000000e+00  0  2008 0  2.256670e-03 2.070467e-03 -1.776854e-03   8.571986e-02 1.077188e+02 3.994485e-03 -1.438576e-04 8.806665e-04 1.255327e-01 3.033847e-08 2.992531e-08 3.052587e-08 1.779443e-04 4.346138e-02 5.063921e-04 1.000000e+00  7.957747e-04  
-6.000000e+00  -6.000000e+00  -3.000000e+00  0  2216 0  3.548259e-04 -5.783377e-04 -2.514329e-03   8.573478e-02 1.077375e+02 4.523249e-03 9.901106e-04 8.451248e-04 1.261985e-01 3.089540e-08 3.039899e-08 3.111723e-08 -1.608086e-04 4.329153e-02 7.292250e-04 1.000000e+00  7.957747e-04  
-5.000000e+00  -6.000000e+00  -4.000000e+00  0  2009 0  -2.870340e-03 -3.731202e-03 -7.474636e-04   8.288491e-02 1.041562e+02 3.987344e-03 5.453790e-05 -2.047030e-05 1.270198e-01 3.103744e-08 3.011945e-08 3.146662e-08 -5.031960e-04 4.343411e-02 -5.678673e-04 1.000000e+00  7.957747e-04  
-5.000000e+00  -6.000000e+00  -3.000000e+00  0  2217 0  2.119310e-03 4.156373e-03 3.360528e-03   8.638632e-02 1.085563e+02 4.957009e-03 1.043437e-04 7.055449e-05 1.269862e-01 3.090195e-08 3.012596e-08 3.126287e-08 -3.814097e-04 4.332055e-02 3.178644e-04 1.000000e+00  7.957747e-04  
-4.000000e+00  -6.000000e+00  -4.000000e+00  0  2010 0  -3.313328e-03 -1.916218e-03 -1.900966e-03   8.053737e-02 1.012062e+02 4.792064e-03 -4.344268e-04 -1.200166e-03 1.265980e-01 3.076471e-08 2.982800e-08 3.119764e-08 -7.645388e-04 4.361768e-02 -4.941397e-04 1.000000e+00  7.957747e-04  
-4.000000e+00  -6.000000e+00  -3.000000e+00  0  2218 0  8.122632e-03 7.270557e-05 -1.133092e-03   8.422778e-02 1.058438e+02 5.153914e-03 -6.313763e-04 -1.593811e-03 1.252005e-01 3.018256e-08 2.940343e-08 3.054157e-08 -1.536190e-04 4.395269e-02 -4.654422e-04 1.000000e+00  7.957747e-04  
-3.000000e+00  -6.000000e+00  -4.000000e+00  0  2011 0  2.320237e-03 6.043774e-04 -2.777736e-03   8.427752e-02 1.059062e+02 5.259208e-03 -4.534826e-04 1.320024e-04 1.242726e-01 2.965609e-08 2.927004e-08 2.982050e-08 -2.247282e-04 4.402682e-02 -1.806925e-04 1.000000e+00  7.957747e-04  
-3.000000e+00  -6.000000e+00  -3.000000e+00  0  2219 0  -1.037521e-04 7.952718e-04 2.489929e-04   7.930392e-02 9.965625e+01 3.801980e-03 -5.842661e-04 6.549038e-04 1.249566e-01 2.988053e-08 2.918781e-08 3.017628e-08 1.544606e-04 4.433232e-02 -1.211143e-04 1.000000e+00  7.957747e-04  
-2.000000e+00  -6.000000e+00  -4.000000e+00  0  2012 0  -9.164055e-04 2.751876e-04 -2.165451e-03   8.257157e-02 1.037625e+02 5.509975e-03 1.542509e-03 4.971425e-04 1.260075e-01 3.034938e-08 2.960651e-08 3.070392e-08 3.251834e-04 4.355113e-02 3.141647e-05 1.000000e+00  7.957747e-04  
-2.000000e+00  -6.000000e+00  -3.000000e+00  0  2220 0  9.614175e-04 1.231180e-03 4.766133e-05   8.046277e-02 1.011125e+02 3.345330e-03 1.209384e-03 1.406953e-03 1.260770e-01 3.025018e-08 2.889815e-08 3.088753e-08 -3.618837e-05 4.400077e-02 4.003756e-04 1.000000e+00  7.957747e-04  
-1.000000e+00  -6.000000e+00  -4.000000e+00  0  2013 0  -2.498249e-03 -8.686042e-04 -1.348906e-03   7.736920e-02 9.722500e+01 5.416081e-03 4.810858e-04 1.630607e-04 1.270266e-01 3.081913e-08 2.899203e-08 3.169877e-08 3.426863e-04 4.284315e-02 9.053608e-05 1.000000e+00  7.957747e-04  
-1.000000e+00  -6.000000e+00  -3.000000e+00  0  2221 0  -4.864534e-04 -4.807565e-04 2.748820e-03   8.199464e-02 1.030375e+02 3.445459e-03 5.469864e-04 -6.210833e-04 1.258911e-01 3.016427e-08 2.828339e-08 3.106605e-08 6.723062e-05 4.323151e-02 1.097764e-04 1.000000e+00  7.957747e-04  
0.000000e+00  -6.000000e+00  -4.000000e+00  0  2014 0  -2.037584e-03 2.276535e-03 2.644669e-03   7.584728e-02 9.531250e+01 4.265873e-03 -9.385042e-04 1.242103e-03 1.249388e-01 2.963911e-08 2.849599e-08 3.016832e-08 3.877615e-04 4.225630e-02 1.406817e-04 1.000000e+00  7.957747e-04  
0.000000e+00  -6.000000e+00  -3.000000e+00  0  2222 0  2.159417e-03 -1.538105e-03 -9.769070e-04   7.979631e-02 1.002750e+02 2.314045e-03 -9.666030e-04 4.114737e-04 1.232728e-01 2.886909e-08 2.832503e-08 2.909447e-08 2.523204e-04 4.228636e-02 -7.831235e-05 1.000000e+00  7.957747e-04  
-1.500000e+01  -5.000000e+00  -4.000000e+00  0  359 0  -1.244079e-03 -2.341087e-04 -2.352772e-04   7.357435e-02 9.245625e+01 -2.081966e-04 -1.591536e-03 -1.037576e-03 1.201641e-01 2.751154e-08 2.752517e-08 2.746348e-08 -3.846314e-05 3.862676e-02 -4.804838e-05 1.000000e+00  7.957747e-04  