VARIABLES="X", "Y", "Z", "Maximum Refinment Level", "Temp_ID", "Thread","Ex (corner node)","Ey (corner node)","Ez (corner node)", "Number Density[1/m^3]", "Particle Number", "Vx [m/s]", "Vy [m/s]", "Vz [m/s]", "|V| [m/s]", "Translational Temperature [K]", "Parallel Translational Temperature [K]", "Tangential Translational Temperature [K]","Bx (center node)","By (center node)","Bz (center node)", "Local Time Step" , "log10(Local Particle Weight)" 
ZONE N=5049, E=4096, DATAPACKING=POINT, ZONETYPE=FEBRICK
-1.600000e+01  -8.000000e+00  -4.000000e+00  0  1004 0  -1.219699e-03 9.831419e-04 9.873725e-05   7.392250e-02 9.289375e+01 -2.892571e-03 -2.050266e-04 -3.643158e-05 2.465045e-02 2.842357e-08 3.009002e-08 2.743459e-08 4.042908e-04 3.792373e-02 2.305987e-05 1.000000e+00  7.957747e-04  
-1.500000e+01  -8.000000e+00  -4.000000e+00  0  1005 0  7.865241e-04 1.313911e-03 1.267041e-03   7.318143e-02 9.196250e+01 -1.916466e-03 -4.467908e-04 -1.213925e-04 2.421180e-02 2.777754e-08 2.931191e-08 2.680605e-08 -2.466246e-04 3.831865e-02 -3.404728e-04 1.000000e+00  7.957747e-04  
-1.500000e+01  -7.000000e+00  -4.000000e+00  0  1024 0  9.803745e-04 1.408970e-04 -1.219076e-03   7.385287e-02 9.280625e+01 -1.414840e-03 -5.531282e-04 -7.525972e-05 2.457532e-02 2.816985e-08 3.016010e-08 2.696270e-08 -3.314122e-04 3.930466e-02 1.972118e-04 1.000000e+00  7.957747e-04  
-1.600000e+01  -7.000000e+00  -4.000000e+00  0  1023 0  -9.000007e-04 1.418012e-03 2.928198e-05   7.122184e-02 8.950000e+01 -2.606504e-03 9.795909e-05 2.278033e-04 2.442841e-02 2.779093e-08 2.880165e-08 2.709111e-08 1.324277e-04 3.832404e-02 5.293251e-04 1.000000e+00  7.957747e-04  
-1.600000e+01  -8.000000e+00  -3.000000e+00  0  1213 0  -5.169343e-04 -4.626110e-04 -5.249783e-05   7.545436e-02 9.481875e+01 -2.504981e-03 -1.821454e-04 -5.371242e-04 2.427351e-02 2.733568e-08 2.806060e-08 2.680633e-08 2.803834e-04 3.766038e-02 5.821946e-04 1.000000e+00  7.957747e-04  
-1.500000e+01  -8.000000e+00  -3.000000e+00  0  1214 0  1.090427e-03 3.365557e-04 -2.235202e-03   7.432536e-02 9.340000e+01 -1.824021e-03 1.314131e-04 -3.313624e-04 2.415878e-02 2.730203e-08 2.800864e-08 2.681599e-08 2.536590e-04 3.861098e-02 -1.949859e-04 1.000000e+00  7.957747e-04  
-1.500000e+01  -7.000000e+00  -3.000000e+00  0  1233 0  1.283663e-03 7.200342e-04 1.023362e-03   7.678729e-02 9.649375e+01 -1.426912e-03 -4.847927e-04 -2.090862e-04 2.422764e-02 2.754880e-08 2.807263e-08 2.707324e-08 3.401229e-04 3.853714e-02 -2.373123e-04 1.000000e+00  7.957747e-04  
-1.600000e+01  -7.000000e+00  -3.000000e+00  0  1232 0  -1.328469e-03 -6.005392e-04 -3.415098e-04   7.296757e-02 9.169375e+01 -2.540782e-03 -2.610846e-04 -1.000440e-04 2.423860e-02 2.744976e-08 2.756027e-08 2.722220e-08 2.456060e-04 3.772330e-02 -6.920917e-05 1.000000e+00  7.957747e-04  
-1.400000e+01  -8.000000e+00  -4.000000e+00  0  1006 0  -2.101200e-03 -1.961075e-04 8.369010e-04   7.252492e-02 9.113750e+01 -4.796969e-04 2.223983e-05 -4.972755e-05 2.455973e-02 2.874425e-08 2.892451e-08 2.849994e-08 -3.428782e-04 3.940261e-02 -6.337642e-04 1.000000e+00  7.957747e-04  
-1.400000e+01  -7.000000e+00  -4.000000e+00  0  1025 0  -1.614071e-03 9.075250e-04 2.172624e-03   7.358429e-02 9.246875e+01 4.551592e-05 -6.141028e-04 -4.102724e-04 2.468537e-02 2.873663e-08 2.981569e-08 2.803811e-08 -3.060845e-04 3.908363e-02 -1.544878e-04 1.000000e+00  7.957747e-04  
-1.400000e+01  -8.000000e+00  -3.000000e+00  0  1215 0  -7.012258e-04 7.396833e-04 -2.885651e-03   7.397721e-02 9.296250e+01 -4.291056e-04 -3.187603e-04 -5.245779e-06 2.446945e-02 2.833342e-08 2.846713e-08 2.807541e-08 1.677375e-04 3.920540e-02 -2.480150e-04 1.000000e+00  7.957747e-04  
-1.400000e+01  -7.000000e+00  -3.000000e+00  0  1234 0  2.036319e-03 -1.886327e-03 1.551908e-03   7.675247e-02 9.645000e+01 -2.032594e-04 -3.939130e-04 -1.828168e-04 2.445465e-02 2.820871e-08 2.853160e-08 2.785932e-08 2.659124e-04 3.869581e-02 -1.037443e-04 1.000000e+00  7.957747e-04  
-1.300000e+01  -8.000000e+00  -4.000000e+00  0  2086 0  1.564920e-03 -9.854632e-04 -9.068380e-04   7.562347e-02 9.503125e+01 5.701205e-04 6.978994e-04 1.155229e-04 2.504376e-02 2.995815e-08 2.934130e-08 3.002343e-08 -1.031612e-04 4.009485e-02 1.130191e-04 1.000000e+00  7.957747e-04  
-1.300000e+01  -7.000000e+00  -4.000000e+00  0  2102 0  2.037782e-03 1.184527e-03 8.103102e-04   7.614569e-02 9.568750e+01 4.533923e-04 -2.018268e-04 1.304589e-04 2.486901e-02 2.929048e-08 2.941628e-08 2.910759e-08 1.607160e-04 3.948879e-02 2.113975e-05 1.000000e+00  7.957747e-04  
-1.300000e+01  -8.000000e+00  -3.000000e+00  0  2262 0  1.339077e-03 2.851115e-03 -2.138022e-03   7.704591e-02 9.681875e+01 1.591844e-03 -1.818911e-05 1.274064e-04 2.477500e-02 2.892019e-08 2.832319e-08 2.900630e-08 -9.875999e-05 3.971263e-02 5.017301e-04 1.000000e+00  7.957747e-04  
-1.300000e+01  -7.000000e+00  -3.000000e+00  0  2278 0  -1.227356e-03 -1.875936e-03 8.237046e-05   7.945811e-02 9.985000e+01 5.507182e-04 -2.614324e-04 1.639112e-04 2.498366e-02 2.928942e-08 2.898133e-08 2.930715e-08 1.630008e-04 3.967409e-02 3.319949e-04 1.000000e+00  7.957747e-04  
-1.200000e+01  -8.000000e+00  -4.000000e+00  0  2087 0  -2.492087e-04 -1.049063e-04 -1.352626e-03   7.718020e-02 9.698750e+01 1.523198e-03 9.388140e-04 2.198650e-04 2.538967e-02 3.066146e-08 2.952991e-08 3.102560e-08 -2.459380e-04 4.028171e-02 -1.704624e-04 1.000000e+00  7.957747e-04  
-1.200000e+01  -7.000000e+00  -4.000000e+00  0  2103 0  8.368390e-04 -9.867194e-04 3.925418e-04   7.733936e-02 9.718750e+01 1.438731e-03 8.964632e-04 -2.181909e-04 2.539717e-02 3.026163e-08 2.946111e-08 3.038650e-08 -4.161642e-04 4.021554e-02 -2.268288e-04 1.000000e+00  7.957747e-04  
-1.200000e+01  -8.000000e+00  -3.000000e+00  0  2263 0  -1.978007e-03 -1.802650e-03 1.442142e-03   7.759301e-02 9.750625e+01 2.851411e-03 8.386966e-04 4.339051e-04 2.502406e-02 2.926901e-08 2.798163e-08 2.971904e-08 2.471720e-04 4.028117e-02 1.071184e-04 1.000000e+00  7.957747e-04  
-1.200000e+01  -7.000000e+00  -3.000000e+00  0  2279 0  -2.130050e-03 -2.105159e-03 -1.777091e-04   8.070150e-02 1.014125e+02 2.074502e-03 3.150947e-04 2.468169e-04 2.530269e-02 2.973471e-08 2.840182e-08 3.010210e-08 -7.694820e-05 4.048251e-02 -8.087471e-05 1.000000e+00  7.957747e-04  
-1.100000e+01  -8.000000e+00  -4.000000e+00  0  2088 0  1.465359e-03 -1.326417e-03 -1.788091e-03   7.867228e-02 9.886250e+01 1.911741e-03 4.171554e-04 -5.743499e-04 2.540783e-02 3.037013e-08 2.912125e-08 3.077859e-08 -5.298305e-04 4.105748e-02 -2.835388e-04 1.000000e+00  7.957747e-04  
-1.100000e+01  -7.000000e+00  -4.000000e+00  0  2104 0  2.926934e-03 -1.247698e-03 9.002231e-04   7.974160e-02 1.002062e+02 2.453034e-03 7.233900e-04 -1.256210e-03 2.527364e-02 2.957142e-08 2.908668e-08 2.956185e-08 -9.534312e-04 4.127153e-02 -4.076365e-04 1.000000e+00  7.957747e-04  
-1.100000e+01  -8.000000e+00  -3.000000e+00  0  2264 0  -1.214218e-03 -9.835825e-04 2.844532e-03   7.617056e-02 9.571875e+01 2.649363e-03 2.964232e-04 -2.170992e-04 2.517985e-02 2.980440e-08 2.872432e-08 3.001038e-08 7.755925e-04 4.146714e-02 -2.326532e-04 1.000000e+00  7.957747e-04  
-1.100000e+01  -7.000000e+00  -3.000000e+00  0  2280 0  -4.963831e-03 7.686475e-04 1.591040e-03   8.024393e-02 1.008375e+02 3.096750e-03 -1.956324e-04 -2.121411e-04 2.538902e-02 2.978875e-08 2.858653e-08 3.006501e-08 -1.481404e-04 4.107597e-02 -4.761662e-04 1.000000e+00  7.957747e-04  
-1.000000e+01  -8.000000e+00  -4.000000e+00  0  2089 0  -2.131572e-03 7.744178e-04 1.585640e-03   7.810529e-02 9.815000e+01 2.527805e-03 -2.030834e-04 2.644291e-04 2.524672e-02 3.003374e-08 2.969422e-08 2.988253e-08 -2.373821e-04 4.167104e-02 8.132743e-05 1.000000e+00  7.957747e-04  
-1.000000e+01  -7.000000e+00  -4.000000e+00  0  2105 0  3.408893e-03 2.003672e-03 -8.457282e-04   7.984107e-02 1.003312e+02 2.643907e-03 -2.461898e-04 -2.814957e-04 2.496106e-02 2.932108e-08 2.940681e-08 2.885856e-08 -5.605793e-04 4.213350e-02 -3.811307e-04 1.000000e+00  7.957747e-04  
-1.000000e+01  -8.000000e+00  -3.000000e+00  0  2265 0  -8.321181e-04 5.816283e-04 -6.681449e-04   7.733936e-02 9.718750e+01 2.756024e-03 -1.131621e-04 4.642824e-05 2.534598e-02 3.034445e-08 3.080445e-08 2.977605e-08 1.961232e-04 4.224336e-02 -7.782601e-05 1.000000e+00  7.957747e-04  
-1.000000e+01  -7.000000e+00  -3.000000e+00  0  2281 0  -1.612333e-03 -7.539944e-04 4.219634e-04   8.095018e-02 1.017250e+02 3.011903e-03 -7.393536e-04 -7.408184e-04 2.545923e-02 3.021744e-08 3.063213e-08 2.975412e-08 1.657438e-04 4.214725e-02 -8.132691e-04 1.000000e+00  7.957747e-04  
-9.000000e+00  -8.000000e+00  -4.000000e+00  0  2090 0  2.388945e-03 1.126373e-03 -2.510699e-03   7.867725e-02 9.886875e+01 3.016782e-03 1.467501e-04 9.486382e-04 2.546020e-02 3.040865e-08 2.997101e-08 3.027088e-08 5.777538e-04 4.264835e-02 4.720857e-04 1.000000e+00  7.957747e-04  
-9.000000e+00  -7.000000e+00  -4.000000e+00  0  2106 0  -2.757699e-03 2.563912e-04 -2.254545e-03   7.760296e-02 9.751875e+01 3.457337e-03 -3.181902e-04 8.979742e-04 2.559621e-02 3.069296e-08 3.023972e-08 3.053488e-08 6.750180e-05 4.231909e-02 -4.741833e-04 1.000000e+00  7.957747e-04  
-9.000000e+00  -8.000000e+00  -3.000000e+00  0  2266 0  -1.359210e-05 8.326056e-04 1.398334e-03   7.964710e-02 1.000875e+02 3.657379e-03 3.931483e-04 6.502679e-04 2.573294e-02 3.094930e-08 3.112681e-08 3.066274e-08 -4.100820e-05 4.271995e-02 9.104564e-05 1.000000e+00  7.957747e-04  
-9.000000e+00  -7.000000e+00  -3.000000e+00  0  2282 0  1.374539e-03 -1.481155e-03 9.231443e-04   7.973663e-02 1.002000e+02 3.385398e-03 -1.480090e-04 1.756911e-04 2.564974e-02 3.062317e-08 3.113021e-08 3.009856e-08 2.901839e-04 4.287025e-02 -1.019772e-03 1.000000e+00  7.957747e-04  
-8.000000e+00  -8.000000e+00  -4.000000e+00  0  2091 0  -4.101852e-03 2.529010e-03 -1.783651e-04   7.752835e-02 9.742500e+01 3.331089e-03 6.350426e-04 3.837843e-04 2.567974e-02 3.060327e-08 2.990403e-08 3.065954e-08 9.925724e-04 4.327589e-02 -1.749176e-04 1.000000e+00  7.957747e-04  
-8.000000e+00  -7.000000e+00  -4.000000e+00  0  2107 0  -3.843267e-03 1.228161e-03 -1.367791e-03   8.195982e-02 1.029938e+02 4.558979e-03 3.483981e-04 6.856537e-04 2.555170e-02 3.016136e-08 2.999885e-08 2.987931e-08 4.984842e-04 4.271457e-02 -2.944342e-04 1.000000e+00  7.957747e-04  
-8.000000e+00  -8.000000e+00  -3.000000e+00  0  2267 0  2.231247e-03 -6.315911e-04 1.417138e-03   8.081590e-02 1.015563e+02 4.688746e-03 3.256101e-04 4.236170e-04 2.620323e-02 3.153992e-08 3.082794e-08 3.170054e-08 2.952226e-04 4.355507e-02 3.345208e-04 1.000000e+00  7.957747e-04  
-8.000000e+00  -7.000000e+00  -3.000000e+00  0  2283 0  7.147028e-03 -1.327179e-03 8.820082e-04   8.252184e-02 1.037000e+02 4.674949e-03 -1.744534e-04 7.961476e-04 2.592018e-02 3.071794e-08 3.103241e-08 3.030211e-08 7.236365e-05 4.345220e-02 1.695076e-06 1.000000e+00  7.957747e-04  
-7.000000e+00  -8.000000e+00  -4.000000e+00  0  2092 0  8.545021e-04 -2.274684e-05 7.757059e-04   7.518082e-02 9.447500e+01 4.786589e-03 3.979025e-04 9.283134e-05 2.601748e-02 3.093811e-08 2.994756e-08 3.117296e-08 4.400090e-04 4.308114e-02 -3.484362e-04 1.000000e+00  7.957747e-04  
-7.000000e+00  -7.000000e+00  -4.000000e+00  0  2108 0  2.296751e-03 -8.247667e-04 1.621937e-03   8.363592e-02 1.051000e+02 5.611797e-03 9.179391e-04 -1.974825e-04 2.600916e-02 3.070211e-08 2.980671e-08 3.092357e-08 3.810297e-04 4.315815e-02 1.149166e-04 1.000000e+00  7.957747e-04  
-7.000000e+00  -8.000000e+00  -3.000000e+00  0  2268 0  -3.302948e-03 -1.566817e-04 4.301638e-04   8.008478e-02 1.006375e+02 5.531675e-03 -2.506190e-05 -2.320177e-04 2.642414e-02 3.177536e-08 3.213691e-08 3.138484e-08 5.605197e-07 4.323911e-02 2.249076e-04 1.000000e+00  7.957747e-04  
-7.000000e+00  -7.000000e+00  -3.000000e+00  0  2284 0  -6.008896e-04 5.678973e-04 -2.120045e-04   8.489424e-02 1.066813e+02 5.928274e-03 -2.638937e-05 -3.234312e-04 2.651680e-02 3.172288e-08 3.104250e-08 3.190164e-08 -4.382768e-04 4.335427e-02 6.833412e-04 1.000000e+00  7.957747e-04  
-6.000000e+00  -8.000000e+00  -4.000000e+00  0  2093 0  -2.828201e-04 -1.172292e-03 -1.828499e-03   7.783671e-02 9.781250e+01 5.347282e-03 -1.683917e-04 -7.316875e-04 2.677263e-02 3.249948e-08 3.042647e-08 3.333260e-08 3.641218e-05 4.389825e-02 5.647833e-04 1.000000e+00  7.957747e-04  
-6.000000e+00  -7.000000e+00  -4.000000e+00  0  2109 0  1.628472e-03 2.273145e-04 1.556588e-03   8.229305e-02 1.034125e+02 5.877170e-03 1.083192e-04 -6.856944e-04 2.682055e-02 3.224655e-08 2.988433e-08 3.318300e-08 -3.288342e-07 4.375272e-02 1.578561e-04 1.000000e+00  7.957747e-04  
-6.000000e+00  -8.000000e+00  -3.000000e+00  0  2269 0  2.082634e-04 -1.482905e-03 -2.254703e-03   8.225326e-02 1.033625e+02 5.672952e-03 -8.868342e-05 -1.092679e-03 2.634718e-02 3.151213e-08 3.129735e-08 3.141990e-08 -3.938860e-05 4.368216e-02 1.750595e-04 1.000000e+00  7.957747e-04  
-6.000000e+00  -7.000000e+00  -3.000000e+00  0  2285 0  -7.780356e-04 -1.257818e-03 1.001361e-03   8.486440e-02 1.066437e+02 6.122184e-03 3.326974e-04 -5.452488e-04 2.638584e-02 3.129341e-08 2.940516e-08 3.200072e-08 -4.135639e-04 4.332051e-02 5.210098e-04 1.000000e+00  7.957747e-04  
-5.000000e+00  -8.000000e+00  -4.000000e+00  0  2094 0  7.938700e-04 1.880925e-03 -1.435055e-03   8.098997e-02 1.017750e+02 4.899093e-03 -6.596367e-04 -3.126440e-04 2.656489e-02 3.223283e-08 3.092478e-08 3.269845e-08 2.316106e-04 4.431815e-02 -3.539930e-05 1.000000e+00  7.957747e-04  
-5.000000e+00  -7.000000e+00  -4.000000e+00  0  2110 0  1.611740e-03 3.305525e-04 2.250233e-04   8.129833e-02 1.021625e+02 5.655582e-03 -3.764465e-04 -1.345626e-05 2.594931e-02 3.055435e-08 2.796051e-08 3.160751e-08 -2.795878e-04 4.386963e-02 1.766428e-04 1.000000e+00  7.957747e-04  
-5.000000e+00  -8.000000e+00  -3.000000e+00  0  2270 0  -8.174893e-06 8.987374e-04 1.717873e-03   8.429741e-02 1.059313e+02 5.130772e-03 2.388382e-04 -7.770842e-04 2.620102e-02 3.141411e-08 3.034458e-08 3.170561e-08 2.486912e-04 4.406259e-02 1.643779e-04 1.000000e+00  7.957747e-04  
-5.000000e+00  -7.000000e+00  -3.000000e+00  0  2286 0  -3.535474e-03 4.974584e-06 -2.170759e-04   8.476990e-02 1.065250e+02 5.428164e-03 2.978935e-04 -1.260037e-04 2.538587e-02 2.940081e-08 2.742053e-08 3.007551e-08 1.225368e-04 4.365984e-02 6.217785e-04 1.000000e+00  7.957747e-04  
-4.000000e+00  -8.000000e+00  -4.000000e+00  0  2095 0  1.931531e-03 3.060395e-05 7.118400e-04   8.247708e-02 1.036437e+02 4.918191e-03 -6.097247e-04 -4.119372e-05 2.581957e-02 3.015431e-08 3.019047e-08 2.997198e-08 5.741855e-04 4.397089e-02 -5.873980e-04 1.000000e+00  7.957747e-04  
-4.000000e+00  -7.000000e+00  -4.000000e+00  0  2111 0  3.015347e-04 -3.159968e-03 2.205684e-03   8.117897e-02 1.020125e+02 5.501965e-03 1.904316e-05 -1.313010e-04 2.547645e-02 2.930839e-08 2.772673e-08 2.992469e-08 -2.464569e-04 4.373633e-02 1.426828e-04 1.000000e+00  7.957747e-04  
-4.000000e+00  -8.000000e+00  -3.000000e+00  0  2271 0  3.940406e-04 -3.073799e-03 1.327407e-03   8.159675e-02 1.025375e+02 4.465799e-03 1.648922e-04 -3.504084e-04 2.587854e-02 3.093313e-08 3.042614e-08 3.104503e-08 -1.530702e-05 4.389026e-02 -1.731976e-04 1.000000e+00  7.957747e-04  
-4.000000e+00  -7.000000e+00  -3.000000e+00  0  2287 0  1.209489e-03 1.810127e-04 -2.512023e-03   8.485445e-02 1.066312e+02 4.787221e-03 2.660820e-04 -4.844864e-04 2.543731e-02 2.992856e-08 2.861005e-08 3.042214e-08 1.344801e-04 4.395252e-02 -1.650172e-05 1.000000e+00  7.957747e-04  
-3.000000e+00  -8.000000e+00  -4.000000e+00  0  2096 0  3.414797e-03 2.582056e-03 -1.681141e-03   8.118394e-02 1.020187e+02 5.016316e-03 -5.129521e-04 -3.332266e-05 2.533156e-02 2.906410e-08 3.028133e-08 2.828879e-08 8.462729e-04 4.317799e-02 -1.594299e-04 1.000000e+00  7.957747e-04  
-3.000000e+00  -7.000000e+00  -4.000000e+00  0  2112 0  -8.380950e-05 -1.807990e-03 2.358634e-04   7.870709e-02 9.890625e+01 5.088306e-03 -1.808877e-04 2.994750e-04 2.525345e-02 2.909743e-08 2.925433e-08 2.882262e-08 -1.589713e-04 4.329334e-02 -7.724185e-05 1.000000e+00  7.957747e-04  
-3.000000e+00  -8.000000e+00  -3.000000e+00  0  2272 0  -2.438711e-03 -2.599581e-04 -8.515998e-04   8.192003e-02 1.029437e+02 4.364948e-03 -1.202876e-04 1.480419e-05 2.596673e-02 3.096500e-08 3.096615e-08 3.076234e-08 7.439445e-05 4.369784e-02 1.657404e-04 1.000000e+00  7.957747e-04  
-3.000000e+00  -7.000000e+00  -3.000000e+00  0  2288 0  4.647237e-04 1.550846e-03 7.638680e-04   8.585414e-02 1.078875e+02 5.108116e-03 2.902599e-04 1.765735e-04 2.588753e-02 3.074493e-08 3.094029e-08 3.043177e-08 -1.313049e-04 4.341314e-02 -4.992620e-04 1.000000e+00  7.957747e-04  
-2.000000e+00  -8.000000e+00  -4.000000e+00  0  2097 0  9.396961e-04 -4.569952e-04 1.626397e-04   7.769745e-02 9.763750e+01 4.862726e-03 -7.634922e-04 4.729629e-04 2.550004e-02 2.981811e-08 3.037709e-08 2.933754e-08 8.420328e-04 4.245309e-02 4.566870e-04 1.000000e+00  7.957747e-04  
-2.000000e+00  -7.000000e+00  -4.000000e+00  0  2113 0  -3.625901e-04 8.958308e-04 -9.649785e-04   7.745872e-02 9.733750e+01 4.151184e-03 -2.167236e-04 4.575789e-04 2.497979e-02 2.929578e-08 2.916415e-08 2.912308e-08 -7.846910e-05 4.260738e-02 -3.053912e-04 1.000000e+00  7.957747e-04  
-2.000000e+00  -8.000000e+00  -3.000000e+00  0  2273 0  1.206019e-05 -1.590607e-03 3.752556e-04   7.907017e-02 9.936250e+01 4.114707e-03 -2.785376e-04 3.616459e-05 2.599585e-02 3.088699e-08 3.156411e-08 3.023833e-08 5.866356e-04 4.363865e-02 5.311026e-04 1.000000e+00  7.957747e-04  
-2.000000e+00  -7.000000e+00  -3.000000e+00  0  2289 0  6.297752e-04 -7.529580e-04 1.292172e-04   8.238755e-02 1.035312e+02 4.594930e-03 2.461463e-04 3.140059e-04 2.578437e-02 3.056686e-08 3.119281e-08 2.996666e-08 -2.130760e-04 4.335001e-02 -4.859945e-04 1.000000e+00  7.957747e-04  
-1.000000e+00  -8.000000e+00  -4.000000e+00  0  2098 0  -2.830340e-03 -6.128494e-04 -1.904638e-04   7.820476e-02 9.827500e+01 3.946112e-03 -3.187389e-04 8.694910e-04 2.540166e-02 2.966213e-08 2.740822e-08 3.055762e-08 5.295689e-04 4.239483e-02 3.199262e-04 1.000000e+00  7.957747e-04  
-1.000000e+00  -7.000000e+00  -4.000000e+00  0  2114 0  -1.208782e-03 1.841675e-04 1.789799e-05   7.798592e-02 9.800000e+01 3.756294e-03 -6.004526e-05 7.499434e-04 2.552237e-02 3.025032e-08 2.867681e-08 3.078484e-08 -1.505537e-05 4.239788e-02 -7.948185e-05 1.000000e+00  7.957747e-04  
-1.000000e+00  -8.000000e+00  -3.000000e+00  0  2274 0  4.696901e-03 -9.352793e-04 -5.048129e-04   7.639437e-02 9.600000e+01 3.489363e-03 -1.644842e-04 4.217596e-04 2.569742e-02 3.041163e-08 2.971900e-08 3.051360e-08 8.254160e-04 4.312324e-02 1.474155e-04 1.000000e+00  7.957747e-04  
-1.000000e+00  -7.000000e+00  -3.000000e+00  0  2290 0  3.960565e-04 2.075940e-03 -1.087695e-03   7.873693e-02 9.894375e+01 3.484317e-03 -1.355318e-04 4.278163e-04 2.547582e-02 3.014368e-08 2.988739e-08 3.005199e-08 1.471229e-04 4.305474e-02 4.908232e-05 1.000000e+00  7.957747e-04  
0.000000e+00  -8.000000e+00  -4.000000e+00  0  2099 0  -1.232842e-03 -3.118249e-04 2.477960e-03   7.997536e-02 1.005000e+02 2.492283e-03 -5.295138e-04 3.859482e-04 2.477209e-02 2.853313e-08 2.553033e-08 2.975306e-08 1.301810e-04 4.264919e-02 -2.026368e-04 1.000000e+00  7.957747e-04  
0.000000e+00  -7.000000e+00  -4.000000e+00  0  2115 0  -2.107060e-03 -6.669149e-04 -1.251260e-03   7.653363e-02 9.617500e+01 3.471136e-03 -4.595153e-04 1.335864e-03 2.522331e-02 2.933861e-08 2.767909e-08 2.995185e-08 -3.065138e-05 4.264250e-02 -1.589652e-04 1.000000e+00  7.957747e-04  
0.000000e+00  -8.000000e+00  -3.000000e+00  0  2275 0  -1.692112e-04 6.630412e-04 8.641662e-04   8.017430e-02 1.007500e+02 2.881763e-03 -3.740893e-04 6.834674e-05 2.513239e-02 2.927491e-08 2.775846e-08 2.981748e-08 5.962043e-04 4.235935e-02 -1.938413e-04 1.000000e+00  7.957747e-04  
0.000000e+00  -7.000000e+00  -3.000000e+00  0  2291 0  -7.187647e-04 -8.374303e-04 3.735355e-03   8.004499e-02 1.005875e+02 3.478514e-03 -4.370651e-04 7.847349e-04 2.490761e-02 2.891437e-08 2.914851e-08 2.861526e-08 5.399033e-04 4.243935e-02 1.197491e-04 1.000000e+00  7.957747e-04  
-1.500000e+01  -6.000000e+00  -4.000000e+00  0  1043 0  -1.689829e-03 -1.455219e-03 2.581982e-03   7.169433e-02 9.009375e+01 -1.861905e-03 -1.761140e-04 -4.122260e-04 2.497220e-02 2.883351e-08 2.889892e-08 2.855181e-08 7.684244e-05 3.957190e-02 -1.766894e-04 1.000000e+00  7.957747e-04  
-1.600000e+01  -6.000000e+00  -4.000000e+00  0  1042 0  1.074558e-04 -1.436843e-04 1.491175e-03   6.891409e-02 8.660000e+01 -2.626153e-03 4.346895e-04 -9.411231e-05 2.447524e-02 2.784150e-08 2.762898e-08 2.769956e-08 -1.337022e-04 3.896240e-02 5.697932e-04 1.000000e+00  7.957747e-04  
-1.500000e+01  -6.000000e+00  -3.000000e+00  0  1252 0  1.762285e-03 -1.288500e-03 2.732008e-04   7.565828e-02 9.507500e+01 -1.842367e-03 -2.613130e-04 -4.096198e-04 2.445481e-02 2.800700e-08 2.704561e-08 2.825005e-08 6.337977e-04 3.874737e-02 -4.638938e-05 1.000000e+00  7.957747e-04  
-1.600000e+01  -6.000000e+00  -3.000000e+00  0  1251 0  2.328461e-03 2.511103e-05 1.081689e-03   7.152025e-02 8.987500e+01 -2.859293e-03 1.145285e-04 -3.090997e-04 2.400436e-02 2.694449e-08 2.608454e-08 2.722114e-08 2.300670e-04 3.787570e-02 -4.063523e-05 1.000000e+00  7.957747e-04  
-1.400000e+01  -6.000000e+00  -4.000000e+00  0  1044 0  -1.247471e-03 8.402846e-04 -2.670373e-04   7.457404e-02 9.371250e+01 -5.665279e-04 -8.416585e-05 -3.499649e-04 2.473822e-02 2.848612e-08 2.761119e-08 2.868205e-08 3.133302e-04 3.878393e-02 -3.260150e-04 1.000000e+00  7.957747e-04  
-1.400000e+01  -6.000000e+00  -3.000000e+00  0  1253 0  1.137347e-03 2.193029e-03 1.079732e-03   7.433531e-02 9.341250e+01 -7.358415e-04 2.659034e-05 2.602694e-04 2.469525e-02 2.868653e-08 2.796937e-08 2.876059e-08 3.412319e-04 3.841783e-02 1.326341e-04 1.000000e+00  7.957747e-04  
-1.300000e+01  -6.000000e+00  -4.000000e+00  0  2118 0  5.820373e-04 1.776917e-03 -2.143454e-03   7.705089e-02 9.682500e+01 2.661542e-04 1.729273e-04 8.274326e-06 2.496705e-02 2.926598e-08 2.852451e-08 2.951970e-08 3.429619e-04 3.952221e-02 -5.786829e-04 1.000000e+00  7.957747e-04  
-1.300000e+01  -6.000000e+00  -3.000000e+00  0  2294 0  -2.039141e-03 -3.220826e-03 -1.639955e-04   7.756317e-02 9.746875e+01 -7.116511e-05 -4.850153e-04 1.858841e-04 2.511526e-02 2.973402e-08 2.962899e-08 2.950774e-08 -1.554695e-04 3.923438e-02 -3.117743e-04 1.000000e+00  7.957747e-04  
-1.200000e+01  -6.000000e+00  -4.000000e+00  0  2119 0  6.597638e-04 2.054740e-03 -3.896921e-04   7.647395e-02 9.610000e+01 1.369725e-03 1.047441e-03 4.018971e-05 2.552164e-02 3.053930e-08 2.995181e-08 3.057846e-08 3.736341e-04 4.098795e-02 -6.022652e-04 1.000000e+00  7.957747e-04  
-1.200000e+01  -6.000000e+00  -3.000000e+00  0  2295 0  1.421169e-03 -4.155586e-04 -9.653088e-04   7.860265e-02 9.877500e+01 1.379264e-03 -2.397772e-04 -3.070235e-04 2.535052e-02 3.004763e-08 3.064405e-08 2.941009e-08 -2.982454e-04 4.029183e-02 -5.724869e-04 1.000000e+00  7.957747e-04  
-1.100000e+01  -6.000000e+00  -4.000000e+00  0  2120 0  -2.077420e-03 -1.067064e-03 6.587344e-04   7.807047e-02 9.810625e+01 2.480746e-03 7.910823e-04 -4.450071e-04 2.538432e-02 3.008328e-08 2.990467e-08 2.992351e-08 3.036416e-04 4.175220e-02 -2.692362e-04 1.000000e+00  7.957747e-04  
-1.100000e+01  -6.000000e+00  -3.000000e+00  0  2296 0  -2.353737e-03 9.676909e-05 -5.005747e-04   8.051251e-02 1.011750e+02 3.027593e-03 -8.161165e-05 1.481137e-05 2.540907e-02 2.992240e-08 2.935739e-08 3.002822e-08 -4.235876e-04 4.059007e-02 -1.491434e-04 1.000000e+00  7.957747e-04  
-1.000000e+01  -6.000000e+00  -4.000000e+00  0  2121 0  -8.671336e-04 -6.549307e-04 -1.583819e-03   7.805555e-02 9.808750e+01 2.834633e-03 1.575963e-04 3.183583e-04 2.556284e-02 3.066779e-08 3.090768e-08 3.016628e-08 4.658355e-05 4.255263e-02 -9.547425e-05 1.000000e+00  7.957747e-04  
-1.000000e+01  -6.000000e+00  -3.000000e+00  0  2297 0  -6.261420e-04 -1.813532e-04 1.556759e-03   8.270586e-02 1.039313e+02 3.485055e-03 -3.217954e-04 -1.032919e-04 2.576952e-02 3.083515e-08 3.158219e-08 3.022068e-08 -2.484343e-04 4.162343e-02 -2.298173e-04 1.000000e+00  7.957747e-04  
-9.000000e+00  -6.000000e+00  -4.000000e+00  0  2122 0  -8.812848e-04 3.337710e-04 6.876855e-05   7.786158e-02 9.784375e+01 4.133156e-03 2.777319e-04 1.534746e-03 2.642069e-02 3.226314e-08 3.205891e-08 3.206723e-08 -2.867267e-04 4.279993e-02 -2.747427e-04 1.000000e+00  7.957747e-04  
-9.000000e+00  -6.000000e+00  -3.000000e+00  0  2298 0  -2.497378e-04 2.074723e-03 3.566581e-03   8.111929e-02 1.019375e+02 3.924959e-03 -1.533245e-05 7.158203e-04 2.587572e-02 3.108398e-08 3.390352e-08 2.933027e-08 2.036723e-04 4.276074e-02 -3.006354e-04 1.000000e+00  7.957747e-04  
-8.000000e+00  -6.000000e+00  -4.000000e+00  0  2123 0  1.200907e-03 -1.111184e-03 -2.589488e-03   8.252681e-02 1.037062e+02 5.090791e-03 1.457449e-04 1.054001e-03 2.603814e-02 3.114190e-08 3.196671e-08 3.050507e-08 -3.092469e-04 4.299019e-02 1.740861e-04 1.000000e+00  7.957747e-04  
-8.000000e+00  -6.000000e+00  -3.000000e+00  0  2299 0  -1.280151e-03 -2.915307e-04 -1.315967e-03   8.250692e-02 1.036813e+02 4.566278e-03 -2.039518e-04 1.010737e-03 2.577178e-02 3.047070e-08 3.230508e-08 2.930050e-08 -3.315051e-05 4.330469e-02 -3.812080e-06 1.000000e+00  7.957747e-04  
-7.000000e+00  -6.000000e+00  -4.000000e+00  0  2124 0  4.206302e-03 1.647834e-03 -4.485672e-04   8.316343e-02 1.045062e+02 5.361504e-03 1.374095e-04 1.042173e-04 2.589380e-02 3.083268e-08 3.171643e-08 3.007082e-08 2.141435e-05 4.328060e-02 8.148221e-04 1.000000e+00  7.957747e-04  
-7.000000e+00  -6.000000e+00  -3.000000e+00  0  2300 0  -3.781124e-03 -1.632287e-03 -2.226814e-03   8.390450e-02 1.054375e+02 5.145642e-03 -2.498663e-04 2.751620e-04 2.597664e-02 3.076959e-08 3.053161e-08 3.064354e-08 -2.932634e-04 4.370530e-02 8.413088e-05 1.000000e+00  7.957747e-04  
-6.000000e+00  -6.000000e+00  -4.000000e+00  0  2125 0  3.011787e-03 1.343433e-03 -2.773692e-04   8.239750e-02 1.035438e+02 5.652995e-03 -2.649329e-04 -1.949990e-04 2.627579e-02 3.147278e-08 3.082677e-08 3.141160e-08 1.877382e-04 4.339086e-02 3.579466e-04 1.000000e+00  7.957747e-04  
-6.000000e+00  -6.000000e+00  -3.000000e+00  0  2301 0  -2.620441e-03 -1.793374e-03 -2.510846e-03   8.376026e-02 1.052562e+02 4.968387e-03 -2.360410e-04 4.321785e-04 2.609257e-02 3.134514e-08 3.039296e-08 3.139021e-08 -6.376600e-04 4.333741e-02 5.632512e-04 1.000000e+00  7.957747e-04  
-5.000000e+00  -6.000000e+00  -4.000000e+00  0  2126 0  -9.393501e-05 4.195718e-04 -4.848196e-04   8.158680e-02 1.025250e+02 6.018816e-03 -3.331259e-06 -1.013865e-05 2.574474e-02 2.998127e-08 2.769802e-08 3.089788e-08 2.006783e-04 4.348803e-02 8.910735e-04 1.000000e+00  7.957747e-04  
-5.000000e+00  -6.000000e+00  -3.000000e+00  0  2302 0  2.473538e-03 2.375953e-03 1.323429e-03   8.418799e-02 1.057938e+02 4.778768e-03 2.768198e-06 8.770632e-05 2.565860e-02 3.036525e-08 2.901161e-08 3.062401e-08 -7.345158e-04 4.322229e-02 8.686474e-04 1.000000e+00  7.957747e-04  
-4.000000e+00  -6.000000e+00  -4.000000e+00  0  2127 0  5.584704e-04 7.179605e-04 -9.181312e-04   8.198966e-02 1.030312e+02 5.140706e-03 1.398348e-04 -1.718054e-04 2.555091e-02 2.989810e-08 2.742015e-08 3.094248e-08 1.364776e-04 4.402079e-02 8.866315e-04 1.000000e+00  7.957747e-04  
-4.000000e+00  -6.000000e+00  -3.000000e+00  0  2303 0  -2.479188e-03 6.665644e-04 -7.011902e-04   8.467540e-02 1.064062e+02 5.109923e-03 -6.622925e-05 -4.211007e-04 2.571871e-02 3.037902e-08 2.865359e-08 3.102563e-08 1.349910e-04 4.405649e-02 2.034350e-04 1.000000e+00  7.957747e-04  
-3.000000e+00  -6.000000e+00  -4.000000e+00  0  2128 0  1.560071e-03 1.765559e-03 1.783208e-03   7.782179e-02 9.779375e+01 4.125630e-03 -4.206319e-04 -3.789453e-05 2.524494e-02 2.975530e-08 2.872616e-08 3.008550e-08 1.233116e-05 4.404507e-02 -3.590492e-04 1.000000e+00  7.957747e-04  
-3.000000e+00  -6.000000e+00  -3.000000e+00  0  2304 0  6.657400e-04 1.268935e-03 6.598305e-05   8.290978e-02 1.041875e+02 5.050393e-03 -5.754407e-04 -8.576930e-07 2.571533e-02 3.049974e-08 3.031832e-08 3.036929e-08 1.089509e-04 4.384937e-02 -3.425521e-04 1.000000e+00  7.957747e-04  
-2.000000e+00  -6.000000e+00  -4.000000e+00  0  2129 0  -2.411486e-03 -3.476201e-04 -3.439559e-03   7.758803e-02 9.750000e+01 3.454218e-03 2.309322e-04 -4.192915e-04 2.504481e-02 2.962071e-08 2.793895e-08 3.026157e-08 -2.422888e-04 4.317306e-02 -7.526224e-04 1.000000e+00  7.957747e-04  
-2.000000e+00  -6.000000e+00  -3.000000e+00  0  2305 0  3.661355e-03 -1.516678e-04 7.285613e-04   8.029367e-02 1.009000e+02 3.981225e-03 -2.230343e-04 -8.965166e-05 2.571045e-02 3.080493e-08 2.924844e-08 3.126304e-08 -6.910743e-04 4.326852e-02 -7.827257e-04 1.000000e+00  7.957747e-04  
-1.000000e+00  -6.000000e+00  -4.000000e+00  0  2130 0  8.552105e-04 -2.447341e-04 2.419989e-04   7.795111e-02 9.795625e+01 2.970429e-03 2.040871e-04 -2.172370e-04 2.540179e-02 3.032774e-08 2.811444e-08 3.123480e-08 -6.012340e-04 4.241861e-02 -7.164689e-05 1.000000e+00  7.957747e-04  
-1.000000e+00  -6.000000e+00  -3.000000e+00  0  2306 0  1.664337e-03 9.800308e-04 -1.498670e-03   8.073134e-02 1.014500e+02 3.118486e-03 -2.879280e-04 -1.408049e-04 2.524336e-02 3.010262e-08 2.796823e-08 3.096516e-08 -7.180256e-04 4.319621e-02 -6.736091e-04 1.000000e+00  7.957747e-04  
0.000000e+00  -6.000000e+00  -4.000000e+00  0  2131 0  -8.272894e-04 -6.525657e-04 -3.196406e-03   7.414134e-02 9.316875e+01 3.025304e-03 -2.586165e-04 8.083484e-04 2.494237e-02 2.909217e-08 2.827911e-08 2.933177e-08 -7.902742e-04 4.230762e-02 7.485655e-04 1.000000e+00  7.957747e-04  
0.000000e+00  -6.000000e+00  -3.000000e+00  0  2307 0  -4.888189e-04 -2.579965e-04 4.762812e-04   7.898064e-02 9.925000e+01 3.189847e-03 -4.169415e-04 2.599739e-04 2.475052e-02 2.891305e-08 2.883130e-08 2.877886e-08 -3.630546e-04 4.285524e-02 1.569145e-04 1.000000e+00  7.957747e-04  
-1.500000e+01  -5.000000e+00  -4.000000e+00  0  2935 0  6.196488e-04 1.967933e-03 -5.447143e-05   6.998341e-02 8.794375e+01 -1.960596e-03 -6.866172e-04 -2.276745e-05 2.519095e-02 2.967283e-08 2.941934e-08 2.943744e-08 3.405538e-04 3.856372e-02 3.932588e-05 1.000000e+00  7.957747e-04  