VARIABLES="X", "Y", "Z", "Maximum Refinment Level", "Temp_ID", "Thread","Ex (corner node)","Ey (corner node)","Ez (corner node)", "Number Density[1/m^3]", "Particle Number", "Vx [m/s]", "Vy [m/s]", "Vz [m/s]", "|V| [m/s]", "Translational Temperature [K]", "Parallel Translational Temperature [K]", "Tangential Translational Temperature [K]","Bx (center node)","By (center node)","Bz (center node)", "Local Time Step" , "log10(Local Particle Weight)" 
ZONE N=5049, E=4096, DATAPACKING=POINT, ZONETYPE=FEBRICK
-1.600000e+01  -8.000000e+00  -4.000000e+00  0  1004 0  -1.973045e-03 1.137200e-04 -1.559828e-03   6.954076e-02 8.738750e+01 -2.610031e-03 3.710897e-04 -4.090393e-05 2.429577e-02 2.751505e-08 2.752331e-08 2.730846e-08 3.682820e-04 3.749470e-02 -3.988450e-04 1.000000e+00  7.957747e-04  
-1.500000e+01  -8.000000e+00  -4.000000e+00  0  1005 0  -1.625126e-03 2.278967e-03 1.453989e-03   7.071453e-02 8.886250e+01 -2.289251e-03 -3.545198e-04 8.517452e-05 2.464823e-02 2.821800e-08 2.876237e-08 2.772514e-08 2.780196e-04 3.834986e-02 -4.081892e-04 1.000000e+00  7.957747e-04  
-1.500000e+01  -7.000000e+00  -4.000000e+00  0  1024 0  -3.219084e-03 1.343451e-03 9.989373e-04   7.319138e-02 9.197500e+01 -2.383678e-03 -8.836666e-05 -1.780023e-04 2.470401e-02 2.866346e-08 2.885266e-08 2.839385e-08 1.171069e-04 3.826667e-02 -3.859527e-04 1.000000e+00  7.957747e-04  
-1.600000e+01  -7.000000e+00  -4.000000e+00  0  1023 0  1.340168e-03 -1.452945e-03 1.319645e-04   6.830731e-02 8.583750e+01 -2.326326e-03 7.992007e-04 -2.546995e-04 2.454722e-02 2.829474e-08 2.765071e-08 2.833743e-08 1.342619e-04 3.782066e-02 -3.198080e-04 1.000000e+00  7.957747e-04  
-1.600000e+01  -8.000000e+00  -3.000000e+00  0  1213 0  1.374014e-03 2.169394e-03 4.440964e-04   6.915780e-02 8.690625e+01 -2.568545e-03 -2.420708e-04 4.377193e-04 2.437153e-02 2.802255e-08 2.765185e-08 2.790676e-08 1.333947e-04 3.764258e-02 -3.885195e-04 1.000000e+00  7.957747e-04  
-1.500000e+01  -8.000000e+00  -3.000000e+00  0  1214 0  9.095980e-04 -1.289640e-03 -8.603932e-04   7.200766e-02 9.048750e+01 -2.217272e-03 -5.390621e-04 7.803420e-04 2.482517e-02 2.897718e-08 3.049112e-08 2.789866e-08 5.298780e-04 3.823332e-02 -2.236827e-04 1.000000e+00  7.957747e-04  
-1.500000e+01  -7.000000e+00  -3.000000e+00  0  1233 0  2.206564e-04 -7.582431e-05 -1.954256e-03   7.475309e-02 9.393750e+01 -1.906676e-03 2.838111e-04 9.411561e-04 2.460519e-02 2.843009e-08 2.914148e-08 2.777873e-08 2.240709e-04 3.785079e-02 -5.219606e-04 1.000000e+00  7.957747e-04  
-1.600000e+01  -7.000000e+00  -3.000000e+00  0  1232 0  -2.432504e-03 1.445328e-03 -3.264595e-04   6.826255e-02 8.578125e+01 -2.263140e-03 4.426764e-04 7.581212e-04 2.450129e-02 2.827275e-08 2.836760e-08 2.789131e-08 8.905712e-05 3.733460e-02 -3.549714e-04 1.000000e+00  7.957747e-04  
-1.400000e+01  -8.000000e+00  -4.000000e+00  0  1006 0  1.870463e-03 2.529442e-03 -2.522775e-04   6.999336e-02 8.795625e+01 -1.076648e-03 6.335926e-05 -4.821324e-04 2.457142e-02 2.840020e-08 2.792391e-08 2.834930e-08 4.888679e-04 4.031820e-02 -9.293999e-05 1.000000e+00  7.957747e-04  
-1.400000e+01  -7.000000e+00  -4.000000e+00  0  1025 0  4.169419e-04 -6.848280e-04 1.984899e-03   7.435023e-02 9.343125e+01 -1.449282e-03 3.788165e-04 6.479712e-05 2.464859e-02 2.851232e-08 2.782443e-08 2.860742e-08 3.944094e-04 3.911615e-02 -2.090686e-04 1.000000e+00  7.957747e-04  
-1.400000e+01  -8.000000e+00  -3.000000e+00  0  1215 0  -1.075730e-03 -2.963830e-03 -6.437913e-04   7.628495e-02 9.586250e+01 -1.015128e-03 -2.424656e-05 -2.127227e-04 2.476269e-02 2.888655e-08 2.871405e-08 2.866676e-08 9.611810e-04 3.973432e-02 3.887339e-04 1.000000e+00  7.957747e-04  
-1.400000e+01  -7.000000e+00  -3.000000e+00  0  1234 0  -6.795668e-04 3.649548e-04 -2.005366e-04   7.803068e-02 9.805625e+01 -1.427315e-03 3.381209e-04 3.716522e-04 2.432636e-02 2.784006e-08 2.710269e-08 2.794469e-08 3.628614e-04 3.929672e-02 3.078801e-04 1.000000e+00  7.957747e-04  
-1.300000e+01  -8.000000e+00  -4.000000e+00  0  2086 0  -7.678835e-04 1.161208e-03 -9.794973e-04   7.181867e-02 9.025000e+01 3.156832e-04 7.898430e-04 -1.075626e-04 2.438924e-02 2.842476e-08 2.793410e-08 2.830304e-08 2.980846e-04 4.116252e-02 6.661039e-04 1.000000e+00  7.957747e-04  
-1.300000e+01  -7.000000e+00  -4.000000e+00  0  2102 0  -1.288005e-04 -2.295507e-03 -1.795078e-03   7.608601e-02 9.561250e+01 -2.035199e-05 2.508981e-04 4.329951e-04 2.437577e-02 2.827865e-08 2.723167e-08 2.843105e-08 7.364827e-04 4.075009e-02 -4.700162e-04 1.000000e+00  7.957747e-04  
-1.300000e+01  -8.000000e+00  -3.000000e+00  0  2262 0  1.935296e-03 2.370394e-03 -1.198249e-03   7.508632e-02 9.435625e+01 3.337596e-04 1.149968e-04 -4.979710e-04 2.471215e-02 2.911842e-08 2.899047e-08 2.888017e-08 7.580974e-04 4.019224e-02 6.448133e-04 1.000000e+00  7.957747e-04  
-1.300000e+01  -7.000000e+00  -3.000000e+00  0  2278 0  1.280765e-03 -2.576609e-03 1.378827e-03   7.716031e-02 9.696250e+01 6.616330e-05 6.109616e-05 1.186852e-04 2.433216e-02 2.823176e-08 2.722804e-08 2.837509e-08 1.064731e-04 4.052277e-02 5.823809e-04 1.000000e+00  7.957747e-04  
-1.200000e+01  -8.000000e+00  -4.000000e+00  0  2087 0  -4.055145e-04 2.067223e-03 -1.488171e-03   7.309191e-02 9.185000e+01 1.422572e-03 5.932390e-04 -4.182218e-04 2.505627e-02 2.983978e-08 2.940097e-08 2.971758e-08 -3.340496e-04 4.054938e-02 1.014742e-03 1.000000e+00  7.957747e-04  
-1.200000e+01  -7.000000e+00  -4.000000e+00  0  2103 0  1.074439e-03 -9.373404e-04 3.767602e-04   7.818487e-02 9.825000e+01 7.899149e-04 1.628302e-04 -2.886687e-04 2.503223e-02 2.991114e-08 2.942867e-08 2.976717e-08 3.809140e-04 4.065845e-02 -4.826717e-05 1.000000e+00  7.957747e-04  
-1.200000e+01  -8.000000e+00  -3.000000e+00  0  2263 0  -1.270315e-03 9.220421e-04 -1.003793e-03   7.572294e-02 9.515625e+01 1.820581e-03 -4.792197e-04 1.187673e-04 2.542351e-02 3.063058e-08 3.045749e-08 3.044684e-08 4.417911e-04 4.089640e-02 9.071761e-04 1.000000e+00  7.957747e-04  
-1.200000e+01  -7.000000e+00  -3.000000e+00  0  2279 0  -3.237369e-03 -1.813948e-03 -1.035074e-03   7.827439e-02 9.836250e+01 1.569577e-03 -4.592881e-04 2.288299e-04 2.521037e-02 3.014702e-08 2.959429e-08 3.017558e-08 -3.556589e-05 4.130122e-02 4.225053e-05 1.000000e+00  7.957747e-04  
-1.100000e+01  -8.000000e+00  -4.000000e+00  0  2088 0  1.752777e-04 -5.644602e-04 -9.691707e-05   7.428557e-02 9.335000e+01 2.351056e-03 -1.486276e-04 -1.170843e-03 2.567493e-02 3.102365e-08 3.107636e-08 3.069142e-08 -3.458508e-04 4.122298e-02 -2.778863e-04 1.000000e+00  7.957747e-04  
-1.100000e+01  -7.000000e+00  -4.000000e+00  0  2104 0  3.118840e-04 -1.615371e-03 1.032563e-03   7.668284e-02 9.636250e+01 2.125254e-03 5.294456e-04 -1.188038e-03 2.555178e-02 3.062909e-08 3.090629e-08 2.996116e-08 3.123872e-04 4.090514e-02 2.364142e-04 1.000000e+00  7.957747e-04  
-1.100000e+01  -8.000000e+00  -3.000000e+00  0  2264 0  2.762959e-04 1.284350e-03 1.854029e-04   7.806053e-02 9.809375e+01 2.676019e-03 -1.626044e-04 1.498078e-04 2.578938e-02 3.112953e-08 3.086709e-08 3.104293e-08 4.030932e-04 4.158650e-02 -6.881323e-05 1.000000e+00  7.957747e-04  
-1.100000e+01  -7.000000e+00  -3.000000e+00  0  2280 0  2.138832e-03 1.434488e-03 -3.180752e-03   7.789640e-02 9.788750e+01 2.416272e-03 3.681573e-04 -1.969677e-04 2.575828e-02 3.112400e-08 3.019487e-08 3.113723e-08 4.065784e-04 4.107087e-02 4.084373e-05 1.000000e+00  7.957747e-04  
-1.000000e+01  -8.000000e+00  -4.000000e+00  0  2089 0  -2.850758e-03 1.563874e-03 -9.106241e-05   7.741396e-02 9.728125e+01 2.940413e-03 -1.656279e-04 -3.740554e-04 2.592313e-02 3.164301e-08 3.306381e-08 3.062674e-08 -6.684912e-05 4.204822e-02 -6.482664e-04 1.000000e+00  7.957747e-04  
-1.000000e+01  -7.000000e+00  -4.000000e+00  0  2105 0  -4.032323e-03 -1.734495e-03 3.512564e-04   7.928900e-02 9.963750e+01 3.781220e-03 4.078781e-04 -2.750495e-05 2.559590e-02 3.024672e-08 3.130797e-08 2.920744e-08 3.346625e-04 4.225771e-02 1.515571e-04 1.000000e+00  7.957747e-04  
-1.000000e+01  -8.000000e+00  -3.000000e+00  0  2265 0  2.449900e-03 4.633578e-04 3.375961e-04   7.816995e-02 9.823125e+01 3.301188e-03 8.298425e-04 -1.084449e-04 2.603703e-02 3.142079e-08 3.213001e-08 3.087939e-08 7.317850e-04 4.222137e-02 -5.624845e-04 1.000000e+00  7.957747e-04  
-1.000000e+01  -7.000000e+00  -3.000000e+00  0  2281 0  3.653850e-04 2.824388e-04 -8.178389e-04   8.090045e-02 1.016625e+02 3.361680e-03 1.335619e-03 -9.124070e-05 2.591089e-02 3.090717e-08 3.142836e-08 3.029631e-08 6.044908e-04 4.190841e-02 1.613195e-04 1.000000e+00  7.957747e-04  
-9.000000e+00  -8.000000e+00  -4.000000e+00  0  2090 0  -1.350653e-03 8.366207e-04 -1.367864e-03   7.749354e-02 9.738125e+01 3.094038e-03 9.559385e-05 6.564441e-06 2.596254e-02 3.163624e-08 3.240734e-08 3.100226e-08 1.741740e-05 4.215927e-02 -2.351125e-04 1.000000e+00  7.957747e-04  
-9.000000e+00  -7.000000e+00  -4.000000e+00  0  2106 0  2.252391e-03 6.171307e-04 -2.055549e-03   7.905027e-02 9.933750e+01 3.951357e-03 9.565783e-05 3.020042e-04 2.560911e-02 3.055380e-08 3.162257e-08 2.979366e-08 -1.208048e-04 4.248349e-02 3.715812e-04 1.000000e+00  7.957747e-04  
-9.000000e+00  -8.000000e+00  -3.000000e+00  0  2266 0  1.490446e-04 9.891469e-04 1.784697e-03   7.973663e-02 1.002000e+02 3.768056e-03 3.823906e-04 -3.680278e-04 2.607629e-02 3.156963e-08 3.212322e-08 3.113238e-08 6.843418e-04 4.277191e-02 -3.201680e-04 1.000000e+00  7.957747e-04  
-9.000000e+00  -7.000000e+00  -3.000000e+00  0  2282 0  -6.381182e-05 -5.420681e-04 -3.749177e-04   8.217369e-02 1.032625e+02 3.600752e-03 5.704279e-04 1.577655e-05 2.565698e-02 3.046189e-08 3.160180e-08 2.967432e-08 3.587223e-04 4.321387e-02 3.627964e-04 1.000000e+00  7.957747e-04  
-8.000000e+00  -8.000000e+00  -4.000000e+00  0  2091 0  4.491458e-04 2.369714e-03 7.148269e-04   7.819481e-02 9.826250e+01 3.798118e-03 -3.248951e-04 -9.689330e-05 2.577742e-02 3.088628e-08 2.970007e-08 3.115537e-08 2.535086e-04 4.253611e-02 -1.827620e-04 1.000000e+00  7.957747e-04  
-8.000000e+00  -7.000000e+00  -4.000000e+00  0  2107 0  1.706852e-03 -2.830260e-04 -2.020252e-03   7.759798e-02 9.751250e+01 4.087239e-03 -1.479160e-04 -2.355647e-04 2.549773e-02 3.059564e-08 2.981415e-08 3.069332e-08 -2.498587e-04 4.207390e-02 3.062992e-04 1.000000e+00  7.957747e-04  
-8.000000e+00  -8.000000e+00  -3.000000e+00  0  2267 0  -1.727182e-03 -9.135548e-06 8.448133e-04   7.991070e-02 1.004188e+02 3.869741e-03 -6.500762e-04 3.570833e-04 2.574596e-02 3.108381e-08 3.021329e-08 3.133806e-08 1.740570e-04 4.338459e-02 2.391711e-05 1.000000e+00  7.957747e-04  
-8.000000e+00  -7.000000e+00  -3.000000e+00  0  2283 0  -7.102125e-04 -2.536464e-03 1.823621e-04   7.970181e-02 1.001562e+02 4.061479e-03 1.189384e-04 8.187002e-05 2.515170e-02 2.987712e-08 2.966116e-08 2.976563e-08 1.331310e-04 4.326333e-02 6.395884e-04 1.000000e+00  7.957747e-04  
-7.000000e+00  -8.000000e+00  -4.000000e+00  0  2092 0  -6.397507e-04 1.192031e-03 1.671433e-03   8.117897e-02 1.020125e+02 4.742679e-03 -4.092646e-04 -5.153415e-05 2.618335e-02 3.143512e-08 2.960174e-08 3.209599e-08 1.117469e-04 4.285828e-02 -1.141116e-04 1.000000e+00  7.957747e-04  
-7.000000e+00  -7.000000e+00  -4.000000e+00  0  2108 0  5.271954e-04 -1.553571e-03 -2.613144e-03   8.168627e-02 1.026500e+02 5.093615e-03 7.182859e-05 1.498967e-05 2.584799e-02 3.073579e-08 2.823876e-08 3.169840e-08 -7.312395e-05 4.245788e-02 4.683298e-04 1.000000e+00  7.957747e-04  
-7.000000e+00  -8.000000e+00  -3.000000e+00  0  2268 0  1.677076e-03 -1.588523e-03 1.623914e-03   8.040309e-02 1.010375e+02 4.517501e-03 -7.020524e-04 2.399382e-04 2.617378e-02 3.164815e-08 3.006202e-08 3.216919e-08 -9.870262e-05 4.288696e-02 7.965619e-04 1.000000e+00  7.957747e-04  
-7.000000e+00  -7.000000e+00  -3.000000e+00  0  2284 0  -6.232177e-04 -9.433502e-04 -5.759301e-04   8.296946e-02 1.042625e+02 4.567354e-03 1.392946e-04 2.431630e-04 2.565243e-02 3.080915e-08 2.852133e-08 3.174167e-08 -6.818330e-05 4.305696e-02 2.706570e-04 1.000000e+00  7.957747e-04  
-6.000000e+00  -8.000000e+00  -4.000000e+00  0  2093 0  4.027767e-03 -6.717400e-04 -1.944342e-03   8.046774e-02 1.011188e+02 5.210932e-03 -1.215210e-04 1.483768e-04 2.643046e-02 3.184248e-08 3.066547e-08 3.219463e-08 -4.320704e-04 4.342467e-02 5.545228e-04 1.000000e+00  7.957747e-04  
-6.000000e+00  -7.000000e+00  -4.000000e+00  0  2109 0  3.365066e-03 6.420067e-04 1.621999e-03   8.381497e-02 1.053250e+02 5.376261e-03 4.541630e-04 2.659453e-04 2.566843e-02 3.007560e-08 2.830461e-08 3.082120e-08 -1.430978e-04 4.338175e-02 5.705577e-04 1.000000e+00  7.957747e-04  
-6.000000e+00  -8.000000e+00  -3.000000e+00  0  2269 0  -3.045281e-03 1.020661e-03 3.731695e-04   8.179569e-02 1.027875e+02 5.256681e-03 8.082777e-06 1.239228e-05 2.654047e-02 3.201187e-08 3.072192e-08 3.239599e-08 -1.483792e-05 4.300610e-02 6.582537e-04 1.000000e+00  7.957747e-04  
-6.000000e+00  -7.000000e+00  -3.000000e+00  0  2285 0  -1.686472e-03 -3.992048e-04 3.074850e-04   8.501858e-02 1.068375e+02 4.598254e-03 3.779110e-04 3.835661e-04 2.616801e-02 3.156882e-08 2.856199e-08 3.288753e-08 -4.328581e-04 4.367169e-02 2.561555e-04 1.000000e+00  7.957747e-04  
-5.000000e+00  -8.000000e+00  -4.000000e+00  0  2094 0  -1.766159e-03 6.692464e-04 -1.146944e-03   7.937355e-02 9.974375e+01 5.004055e-03 -2.361393e-04 3.367103e-04 2.635055e-02 3.177945e-08 3.034941e-08 3.230251e-08 -3.118853e-04 4.350980e-02 1.297044e-04 1.000000e+00  7.957747e-04  
-5.000000e+00  -7.000000e+00  -4.000000e+00  0  2110 0  5.236924e-04 1.891773e-03 -1.259501e-03   8.005494e-02 1.006000e+02 5.349978e-03 3.076731e-04 -1.335489e-04 2.592535e-02 3.072494e-08 2.886509e-08 3.152282e-08 -4.191009e-04 4.357989e-02 -3.870342e-05 1.000000e+00  7.957747e-04  
-5.000000e+00  -8.000000e+00  -3.000000e+00  0  2270 0  5.188301e-04 -9.986248e-04 -2.688245e-03   8.119886e-02 1.020375e+02 4.818678e-03 3.671644e-04 2.671019e-04 2.595433e-02 3.086555e-08 2.852873e-08 3.186468e-08 2.121416e-05 4.453132e-02 -3.294705e-04 1.000000e+00  7.957747e-04  
-5.000000e+00  -7.000000e+00  -3.000000e+00  0  2286 0  -1.646743e-03 5.904923e-04 6.459131e-04   8.110934e-02 1.019250e+02 5.024770e-03 4.905033e-04 2.275829e-04 2.610801e-02 3.110946e-08 2.821134e-08 3.240500e-08 -7.027659e-04 4.497052e-02 -1.111484e-04 1.000000e+00  7.957747e-04  
-4.000000e+00  -8.000000e+00  -4.000000e+00  0  2095 0  -1.771450e-03 2.139929e-03 -1.174334e-03   7.886625e-02 9.910625e+01 4.661356e-03 -1.419487e-04 -2.391185e-04 2.558891e-02 3.031667e-08 2.713805e-08 3.170740e-08 -3.008570e-04 4.382243e-02 -1.013947e-03 1.000000e+00  7.957747e-04  
-4.000000e+00  -7.000000e+00  -4.000000e+00  0  2111 0  -2.601962e-03 -2.533154e-03 2.261216e-04   7.886127e-02 9.910000e+01 5.087480e-03 4.197477e-05 -1.794553e-04 2.563351e-02 3.021259e-08 2.700854e-08 3.167683e-08 -5.024331e-04 4.372937e-02 -5.227872e-04 1.000000e+00  7.957747e-04  
-4.000000e+00  -8.000000e+00  -3.000000e+00  0  2271 0  -7.550729e-04 9.779182e-04 6.125255e-04   7.895080e-02 9.921250e+01 4.943607e-03 4.645693e-05 -1.468702e-04 2.552452e-02 3.009315e-08 2.695753e-08 3.153443e-08 -4.032714e-04 4.459909e-02 -4.183375e-04 1.000000e+00  7.957747e-04  
-4.000000e+00  -7.000000e+00  -3.000000e+00  0  2287 0  3.009241e-03 -1.374752e-04 -1.018388e-03   8.130331e-02 1.021688e+02 5.164062e-03 3.034366e-04 -1.302136e-05 2.550832e-02 2.991184e-08 2.784102e-08 3.083811e-08 -8.055760e-04 4.448722e-02 -2.915362e-04 1.000000e+00  7.957747e-04  
-3.000000e+00  -8.000000e+00  -4.000000e+00  0  2096 0  -1.239655e-03 5.409693e-04 5.469654e-03   7.978139e-02 1.002562e+02 4.009990e-03 -2.987658e-04 -7.732452e-04 2.559285e-02 3.054457e-08 2.662969e-08 3.224580e-08 -5.595758e-04 4.312795e-02 -5.699307e-04 1.000000e+00  7.957747e-04  
-3.000000e+00  -7.000000e+00  -4.000000e+00  0  2112 0  2.629155e-03 -9.837045e-04 4.753790e-04   8.056224e-02 1.012375e+02 4.710255e-03 -3.986366e-05 2.868284e-04 2.527484e-02 2.947654e-08 2.618635e-08 3.101343e-08 -2.609597e-04 4.275831e-02 -2.128806e-04 1.000000e+00  7.957747e-04  
-3.000000e+00  -8.000000e+00  -3.000000e+00  0  2272 0  -7.019811e-04 -1.522957e-03 -4.546673e-03   7.929895e-02 9.965000e+01 4.663029e-03 -7.247215e-04 -7.328506e-04 2.593157e-02 3.127982e-08 2.830481e-08 3.245880e-08 -6.636822e-04 4.394546e-02 9.348174e-05 1.000000e+00  7.957747e-04  
-3.000000e+00  -7.000000e+00  -3.000000e+00  0  2288 0  1.990499e-03 -3.235501e-04 -1.687859e-03   8.250692e-02 1.036813e+02 5.056082e-03 1.309674e-04 3.403890e-04 2.564781e-02 3.039413e-08 2.822510e-08 3.128441e-08 -7.192900e-04 4.304243e-02 -3.417479e-05 1.000000e+00  7.957747e-04  
-2.000000e+00  -8.000000e+00  -4.000000e+00  0  2097 0  -6.164426e-05 -7.760159e-04 -1.687985e-03   7.875683e-02 9.896875e+01 3.617457e-03 -4.024640e-04 -6.911656e-04 2.566977e-02 3.059968e-08 2.803177e-08 3.172190e-08 -2.852454e-04 4.304110e-02 -1.453603e-04 1.000000e+00  7.957747e-04  
-2.000000e+00  -7.000000e+00  -4.000000e+00  0  2113 0  3.466048e-03 -1.660597e-03 2.892722e-04   7.934371e-02 9.970625e+01 4.453021e-03 -4.301850e-05 9.862748e-05 2.548814e-02 2.979631e-08 2.742371e-08 3.086185e-08 2.780799e-04 4.272131e-02 3.120629e-04 1.000000e+00  7.957747e-04  
-2.000000e+00  -8.000000e+00  -3.000000e+00  0  2273 0  -2.483908e-03 1.159249e-03 -2.345648e-04   7.853799e-02 9.869375e+01 4.049976e-03 -7.813262e-04 -6.250253e-04 2.550267e-02 3.011829e-08 2.728905e-08 3.122136e-08 -5.415105e-04 4.408909e-02 7.466330e-05 1.000000e+00  7.957747e-04  
-2.000000e+00  -7.000000e+00  -3.000000e+00  0  2289 0  -7.175560e-04 -5.448804e-04 8.791036e-04   8.142765e-02 1.023250e+02 5.024804e-03 -2.497635e-04 2.684347e-04 2.561064e-02 2.999300e-08 2.635961e-08 3.161782e-08 -2.233997e-04 4.366773e-02 -1.676826e-04 1.000000e+00  7.957747e-04  
-1.000000e+00  -8.000000e+00  -4.000000e+00  0  2098 0  -1.663016e-03 -3.655609e-04 -1.360462e-03   7.818487e-02 9.825000e+01 3.552806e-03 3.681633e-06 -2.008919e-04 2.483568e-02 2.874301e-08 2.652854e-08 2.969607e-08 6.743950e-05 4.303110e-02 5.214442e-05 1.000000e+00  7.957747e-04  
-1.000000e+00  -7.000000e+00  -4.000000e+00  0  2114 0  -1.553994e-03 -1.255201e-03 -5.684338e-04   8.004996e-02 1.005938e+02 3.546368e-03 -1.361905e-04 3.030581e-04 2.499374e-02 2.881754e-08 2.722078e-08 2.944410e-08 4.466090e-04 4.346210e-02 5.799741e-04 1.000000e+00  7.957747e-04  
-1.000000e+00  -8.000000e+00  -3.000000e+00  0  2274 0  1.538823e-03 8.976826e-04 3.579105e-03   7.751343e-02 9.740625e+01 3.190651e-03 -3.748091e-04 -2.545146e-04 2.472578e-02 2.847018e-08 2.558229e-08 2.968458e-08 3.274704e-05 4.322948e-02 -2.952612e-04 1.000000e+00  7.957747e-04  
-1.000000e+00  -7.000000e+00  -3.000000e+00  0  2290 0  -1.604688e-03 1.220680e-04 1.631512e-03   8.416312e-02 1.057625e+02 3.553498e-03 -2.247694e-04 1.556561e-04 2.496751e-02 2.900067e-08 2.620621e-08 3.021876e-08 2.565737e-04 4.319999e-02 -4.869991e-05 1.000000e+00  7.957747e-04  
0.000000e+00  -8.000000e+00  -4.000000e+00  0  2099 0  -6.089360e-04 -7.216071e-04 -1.937983e-03   7.901048e-02 9.928750e+01 2.818459e-03 2.230185e-04 -2.112141e-04 2.451422e-02 2.816617e-08 2.629018e-08 2.894300e-08 6.187038e-05 4.207993e-02 8.036653e-05 1.000000e+00  7.957747e-04  
0.000000e+00  -7.000000e+00  -4.000000e+00  0  2115 0  -2.830245e-03 -1.870593e-03 1.584279e-03   7.674252e-02 9.643750e+01 2.674919e-03 -3.888588e-04 -1.398400e-04 2.456555e-02 2.798235e-08 2.739562e-08 2.805085e-08 2.827620e-04 4.251850e-02 4.848615e-04 1.000000e+00  7.957747e-04  
0.000000e+00  -8.000000e+00  -3.000000e+00  0  2275 0  1.649449e-03 -6.714260e-04 8.972074e-04   7.651374e-02 9.615000e+01 1.825897e-03 -1.431852e-04 -3.551383e-04 2.452859e-02 2.853568e-08 2.658342e-08 2.939143e-08 4.257112e-04 4.164672e-02 4.343699e-04 1.000000e+00  7.957747e-04  
0.000000e+00  -7.000000e+00  -3.000000e+00  0  2291 0  5.161939e-03 -1.300502e-03 -2.607799e-03   8.053240e-02 1.012000e+02 2.007752e-03 -6.972454e-04 -1.675848e-04 2.468315e-02 2.874496e-08 2.823561e-08 2.885326e-08 4.573067e-04 4.177821e-02 -2.889073e-04 1.000000e+00  7.957747e-04  
-1.500000e+01  -6.000000e+00  -4.000000e+00  0  1043 0  -8.351351e-04 3.565568e-03 1.581775e-03   7.302228e-02 9.176250e+01 -1.393683e-03 4.896578e-04 -7.887548e-05 2.442743e-02 2.823423e-08 2.835386e-08 2.800148e-08 4.014175e-04 3.848909e-02 9.190466e-05 1.000000e+00  7.957747e-04  
-1.600000e+01  -6.000000e+00  -4.000000e+00  0  1042 0  -2.160734e-03 3.183901e-03 -2.889121e-04   6.854107e-02 8.613125e+01 -2.275858e-03 1.092182e-03 -3.852394e-04 2.427841e-02 2.773499e-08 2.793889e-08 2.740782e-08 3.472813e-04 3.805743e-02 4.030385e-04 1.000000e+00  7.957747e-04  
-1.500000e+01  -6.000000e+00  -3.000000e+00  0  1252 0  1.175220e-03 -1.360964e-03 2.817916e-03   7.394737e-02 9.292500e+01 -1.142113e-03 4.052667e-04 5.705386e-04 2.385513e-02 2.694924e-08 2.671167e-08 2.690076e-08 -3.394875e-04 3.840106e-02 -5.030078e-04 1.000000e+00  7.957747e-04  
-1.600000e+01  -6.000000e+00  -3.000000e+00  0  1251 0  1.166762e-03 9.541298e-04 -1.532886e-03   6.750159e-02 8.482500e+01 -2.475038e-03 8.030813e-04 2.437396e-04 2.378871e-02 2.679250e-08 2.649353e-08 2.673310e-08 -1.499739e-04 3.752458e-02 -1.280407e-05 1.000000e+00  7.957747e-04  
-1.400000e+01  -6.000000e+00  -4.000000e+00  0  1044 0  5.060670e-03 -1.442753e-03 3.025024e-04   7.533997e-02 9.467500e+01 -5.355133e-04 2.354667e-04 5.630037e-04 2.465222e-02 2.865277e-08 2.868494e-08 2.848373e-08 2.280270e-04 3.880679e-02 -2.980839e-04 1.000000e+00  7.957747e-04  
-1.400000e+01  -6.000000e+00  -3.000000e+00  0  1253 0  -2.771069e-03 1.422991e-03 -2.307188e-04   7.828434e-02 9.837500e+01 -4.302160e-04 -2.951679e-04 5.607847e-04 2.410185e-02 2.761754e-08 2.800268e-08 2.723323e-08 -4.768933e-04 3.926953e-02 -6.255455e-04 1.000000e+00  7.957747e-04  
-1.300000e+01  -6.000000e+00  -4.000000e+00  0  2118 0  4.463924e-04 -1.966983e-03 -2.079635e-03   7.527034e-02 9.458750e+01 2.713678e-04 -7.225495e-05 6.805482e-04 2.473431e-02 2.879642e-08 2.832879e-08 2.881510e-08 -2.838352e-05 4.029679e-02 -1.119651e-04 1.000000e+00  7.957747e-04  
-1.300000e+01  -6.000000e+00  -3.000000e+00  0  2294 0  -3.392651e-03 1.968226e-03 1.532739e-03   7.707078e-02 9.685000e+01 -1.317171e-04 -1.707569e-04 -3.443289e-05 2.415868e-02 2.781244e-08 2.754426e-08 2.775028e-08 -4.754439e-04 4.037746e-02 -2.494125e-04 1.000000e+00  7.957747e-04  
-1.200000e+01  -6.000000e+00  -4.000000e+00  0  2119 0  -1.669044e-03 -1.579420e-04 -2.637547e-03   7.555384e-02 9.494375e+01 9.087961e-04 2.730337e-04 2.840119e-05 2.489417e-02 2.923696e-08 2.914334e-08 2.904425e-08 3.323600e-04 4.086431e-02 -4.158117e-04 1.000000e+00  7.957747e-04  
-1.200000e+01  -6.000000e+00  -3.000000e+00  0  2295 0  -1.275601e-03 2.096796e-03 -2.589467e-03   7.687681e-02 9.660625e+01 6.970352e-04 3.832397e-04 -2.306799e-04 2.463505e-02 2.859059e-08 2.865161e-08 2.844005e-08 -2.766958e-04 4.068397e-02 -4.731599e-04 1.000000e+00  7.957747e-04  
-1.100000e+01  -6.000000e+00  -4.000000e+00  0  2120 0  1.113601e-03 -1.373523e-03 1.815494e-03   7.451933e-02 9.364375e+01 2.042803e-03 8.582341e-04 -1.572079e-04 2.512943e-02 2.954592e-08 3.040119e-08 2.871639e-08 5.091657e-04 4.120663e-02 -4.398124e-05 1.000000e+00  7.957747e-04  
-1.100000e+01  -6.000000e+00  -3.000000e+00  0  2296 0  1.214786e-04 1.320706e-03 -2.262728e-03   7.659829e-02 9.625625e+01 1.592226e-03 3.592402e-04 -9.667174e-05 2.518938e-02 2.984439e-08 3.002145e-08 2.939033e-08 -2.414118e-04 4.076584e-02 -5.235684e-05 1.000000e+00  7.957747e-04  
-1.000000e+01  -6.000000e+00  -4.000000e+00  0  2121 0  2.675492e-04 1.168318e-03 -3.137463e-03   7.701110e-02 9.677500e+01 3.618324e-03 2.261394e-05 7.134825e-04 2.554414e-02 3.005766e-08 3.079188e-08 2.923360e-08 2.247473e-04 4.244866e-02 3.622963e-04 1.000000e+00  7.957747e-04  
-1.000000e+01  -6.000000e+00  -3.000000e+00  0  2297 0  -4.207318e-04 -2.493321e-04 -1.009129e-03   7.975155e-02 1.002188e+02 2.364622e-03 4.229407e-05 2.301130e-04 2.534649e-02 3.016330e-08 3.048330e-08 2.960435e-08 -2.967353e-04 4.178554e-02 6.114919e-04 1.000000e+00  7.957747e-04  
-9.000000e+00  -6.000000e+00  -4.000000e+00  0  2122 0  4.982774e-04 -1.503585e-03 2.120025e-04   7.814508e-02 9.820000e+01 3.479672e-03 -2.566615e-04 1.180213e-04 2.597216e-02 3.111344e-08 3.155906e-08 3.059731e-08 -2.721605e-05 4.288696e-02 2.163232e-04 1.000000e+00  7.957747e-04  
-9.000000e+00  -6.000000e+00  -3.000000e+00  0  2298 0  1.079310e-04 -7.029334e-04 -1.695687e-04   8.120384e-02 1.020438e+02 2.756370e-03 1.068722e-04 -6.210379e-05 2.547056e-02 3.042296e-08 3.151105e-08 2.967868e-08 -2.406434e-04 4.314451e-02 4.610669e-04 1.000000e+00  7.957747e-04  
-8.000000e+00  -6.000000e+00  -4.000000e+00  0  2123 0  -7.083313e-04 -5.197137e-04 2.772644e-04   8.065177e-02 1.013500e+02 3.008047e-03 2.632630e-04 -3.780573e-04 2.566612e-02 3.089871e-08 2.994976e-08 3.114938e-08 -2.476015e-04 4.249038e-02 2.206867e-04 1.000000e+00  7.957747e-04  
-8.000000e+00  -6.000000e+00  -3.000000e+00  0  2299 0  1.956590e-04 -9.750027e-04 -5.247294e-04   8.122870e-02 1.020750e+02 3.326030e-03 3.664910e-04 -1.094855e-04 2.560030e-02 3.100504e-08 3.140807e-08 3.056157e-08 -2.758035e-04 4.331871e-02 -5.443340e-04 1.000000e+00  7.957747e-04  
-7.000000e+00  -6.000000e+00  -4.000000e+00  0  2124 0  -1.141298e-03 -8.404551e-04 -1.460764e-03   8.334745e-02 1.047375e+02 4.234201e-03 7.629982e-04 -8.211349e-05 2.603334e-02 3.166007e-08 3.009762e-08 3.211278e-08 -1.059590e-04 4.259640e-02 5.312201e-04 1.000000e+00  7.957747e-04  
-7.000000e+00  -6.000000e+00  -3.000000e+00  0  2300 0  8.874306e-04 2.460277e-03 3.877823e-03   8.487435e-02 1.066562e+02 4.097255e-03 7.386219e-04 1.840474e-04 2.599145e-02 3.183641e-08 3.091410e-08 3.211294e-08 1.112057e-04 4.345140e-02 -3.482639e-04 1.000000e+00  7.957747e-04  
-6.000000e+00  -6.000000e+00  -4.000000e+00  0  2125 0  1.347558e-03 2.206971e-03 -1.006552e-03   8.187030e-02 1.028812e+02 5.209592e-03 4.728728e-04 -7.347448e-05 2.613573e-02 3.140841e-08 3.118422e-08 3.127063e-08 -1.944215e-04 4.360092e-02 -3.880105e-04 1.000000e+00  7.957747e-04  
-6.000000e+00  -6.000000e+00  -3.000000e+00  0  2301 0  -6.018530e-04 -1.817983e-03 -2.773693e-03   8.492906e-02 1.067250e+02 4.767108e-03 5.275274e-04 -5.038191e-04 2.593973e-02 3.107958e-08 3.010465e-08 3.142425e-08 -1.505497e-04 4.450003e-02 2.079396e-04 1.000000e+00  7.957747e-04  
-5.000000e+00  -6.000000e+00  -4.000000e+00  0  2126 0  -2.700665e-04 -9.187048e-04 -2.053339e-03   8.022404e-02 1.008125e+02 5.669005e-03 3.362938e-04 -5.904018e-05 2.622256e-02 3.147340e-08 3.145790e-08 3.130043e-08 -5.977726e-04 4.360711e-02 -7.348818e-04 1.000000e+00  7.957747e-04  
-5.000000e+00  -6.000000e+00  -3.000000e+00  0  2302 0  3.060133e-03 2.511021e-03 4.562702e-03   8.361603e-02 1.050750e+02 5.321869e-03 -8.988242e-05 -2.807547e-04 2.611935e-02 3.115863e-08 3.043057e-08 3.136155e-08 -8.049572e-04 4.475760e-02 -2.021332e-04 1.000000e+00  7.957747e-04  
-4.000000e+00  -6.000000e+00  -4.000000e+00  0  2127 0  -2.795639e-03 -1.759784e-03 -7.456597e-04   8.063187e-02 1.013250e+02 5.429882e-03 1.008131e-04 3.400417e-04 2.606844e-02 3.141644e-08 3.024492e-08 3.170723e-08 -7.393044e-05 4.335109e-02 -6.863541e-05 1.000000e+00  7.957747e-04  
-4.000000e+00  -6.000000e+00  -3.000000e+00  0  2303 0  1.077347e-03 -1.199834e-04 2.377825e-03   8.257655e-02 1.037687e+02 5.379006e-03 -2.226306e-06 5.379535e-04 2.620903e-02 3.163772e-08 3.105182e-08 3.172074e-08 -2.403394e-04 4.389284e-02 -5.041537e-04 1.000000e+00  7.957747e-04  
-3.000000e+00  -6.000000e+00  -4.000000e+00  0  2128 0  3.082395e-03 2.761525e-04 -8.061696e-05   8.027875e-02 1.008812e+02 5.283040e-03 -4.879505e-04 5.315586e-04 2.560117e-02 3.021306e-08 2.794931e-08 3.113927e-08 9.168517e-04 4.297246e-02 4.089388e-04 1.000000e+00  7.957747e-04  
-3.000000e+00  -6.000000e+00  -3.000000e+00  0  2304 0  -2.443782e-03 -3.418708e-04 -2.879172e-03   8.474503e-02 1.064938e+02 5.191143e-03 1.316408e-04 5.469854e-04 2.579093e-02 3.069117e-08 2.881939e-08 3.139280e-08 2.958570e-04 4.253941e-02 -1.587143e-04 1.000000e+00  7.957747e-04  
-2.000000e+00  -6.000000e+00  -4.000000e+00  0  2129 0  -7.581796e-04 2.636824e-03 -2.168066e-03   8.021409e-02 1.008000e+02 5.013295e-03 -4.530879e-04 3.159983e-04 2.531284e-02 2.941027e-08 2.787247e-08 2.995756e-08 8.942212e-04 4.296480e-02 7.445681e-04 1.000000e+00  7.957747e-04  
-2.000000e+00  -6.000000e+00  -3.000000e+00  0  2305 0  -4.181847e-05 -5.136171e-04 9.504866e-04   8.540155e-02 1.073187e+02 4.572914e-03 -4.710730e-05 3.108813e-04 2.541086e-02 2.977341e-08 2.669723e-08 3.105131e-08 6.685450e-04 4.329318e-02 6.481990e-04 1.000000e+00  7.957747e-04  
-1.000000e+00  -6.000000e+00  -4.000000e+00  0  2130 0  -1.205739e-03 -2.167589e-03 -3.432013e-03   8.065177e-02 1.013500e+02 3.393068e-03 -5.487024e-04 4.738853e-04 2.507083e-02 2.911954e-08 2.883316e-08 2.900716e-08 2.514313e-04 4.328516e-02 1.029846e-04 1.000000e+00  7.957747e-04  
-1.000000e+00  -6.000000e+00  -3.000000e+00  0  2306 0  7.374794e-04 -2.736888e-04 1.318917e-03   8.449138e-02 1.061750e+02 3.366239e-03 -2.821120e-04 2.999106e-04 2.507880e-02 2.913530e-08 2.695879e-08 3.003897e-08 8.086863e-04 4.392429e-02 7.456143e-04 1.000000e+00  7.957747e-04  
0.000000e+00  -6.000000e+00  -4.000000e+00  0  2131 0  -2.671236e-03 1.289439e-03 1.093096e-04   7.677237e-02 9.647500e+01 2.054860e-03 -1.525697e-04 -4.594556e-05 2.493744e-02 2.901737e-08 2.967934e-08 2.847736e-08 3.267982e-04 4.252779e-02 -4.650204e-04 1.000000e+00  7.957747e-04  
0.000000e+00  -6.000000e+00  -3.000000e+00  0  2307 0  1.110468e-03 -5.616230e-04 1.061955e-03   8.212395e-02 1.032000e+02 2.482405e-03 -6.216272e-04 -2.081235e-04 2.479942e-02 2.864582e-08 2.785072e-08 2.887810e-08 3.376255e-04 4.241465e-02 -5.394907e-04 1.000000e+00  7.957747e-04  
-1.500000e+01  -5.000000e+00  -4.000000e+00  0  2935 0  -2.246533e-03 -1.405967e-03 -4.585443e-04   7.046585e-02 8.855000e+01 -1.548029e-03 9.399869e-04 3.514307e-04 2.413324e-02 2.784824e-08 2.720899e-08 2.783565e-08 -1.572067e-04 3.843305e-02 -3.955503e-04 1.000000e+00  7.957747e-04  