VARIABLES="X", "Y", "Z", "Maximum Refinment Level", "Temp_ID", "Thread","Ex (corner node)","Ey (corner node)","Ez (corner node)", "Number Density[1/m^3]", "Particle Number", "Vx [m/s]", "Vy [m/s]", "Vz [m/s]", "|V| [m/s]", "Translational Temperature [K]", "Parallel Translational Temperature [K]", "Tangential Translational Temperature [K]","Bx (center node)","By (center node)","Bz (center node)", "Local Time Step" , "log10(Local Particle Weight)" 
ZONE N=5049, E=4096, DATAPACKING=POINT, ZONETYPE=FEBRICK
-1.600000e+01  -8.000000e+00  -4.000000e+00  0  1004 0  -3.485779e-03 -1.237786e-04 -1.492566e-03   6.961537e-02 8.748125e+01 -2.551210e-03 1.137666e-04 -7.993043e-04 1.190748e-01 2.756931e-08 2.693202e-08 2.785044e-08 3.691761e-04 3.762249e-02 -3.675614e-04 1.000000e+00  7.957747e-04  
-1.500000e+01  -8.000000e+00  -4.000000e+00  0  1005 0  -9.885676e-04 1.624281e-03 7.738634e-04   6.931198e-02 8.710000e+01 -1.887788e-03 1.194592e-03 -8.863653e-04 1.198047e-01 2.807693e-08 2.781267e-08 2.813168e-08 3.796313e-04 3.858492e-02 -2.657223e-04 1.000000e+00  7.957747e-04  
-1.500000e+01  -7.000000e+00  -4.000000e+00  0  1024 0  -1.951923e-03 1.742624e-03 4.556940e-04   7.471330e-02 9.388750e+01 -2.418936e-03 7.151894e-04 -5.489355e-04 1.185553e-01 2.752904e-08 2.737956e-08 2.755629e-08 9.180291e-05 3.839526e-02 -5.354563e-04 1.000000e+00  7.957747e-04  
-1.600000e+01  -7.000000e+00  -4.000000e+00  0  1023 0  -5.946969e-04 -6.373127e-04 1.555675e-03   7.106268e-02 8.930000e+01 -3.349799e-03 1.877849e-04 -1.707325e-03 1.210957e-01 2.819965e-08 2.784624e-08 2.834749e-08 3.887959e-05 3.776701e-02 -4.770851e-04 1.000000e+00  7.957747e-04  
-1.600000e+01  -8.000000e+00  -3.000000e+00  0  1213 0  4.147104e-03 1.846134e-03 2.758549e-04   6.946119e-02 8.728750e+01 -2.109468e-03 3.449929e-04 3.307949e-04 1.185866e-01 2.717319e-08 2.650651e-08 2.746290e-08 2.203345e-04 3.773462e-02 -4.526690e-04 1.000000e+00  7.957747e-04  
-1.500000e+01  -8.000000e+00  -3.000000e+00  0  1214 0  1.297899e-03 -8.179746e-04 -1.232412e-03   7.277857e-02 9.145625e+01 -1.236477e-03 1.007713e-03 -5.585199e-04 1.195339e-01 2.770389e-08 2.764587e-08 2.766000e-08 5.931791e-04 3.830438e-02 -2.889284e-04 1.000000e+00  7.957747e-04  
-1.500000e+01  -7.000000e+00  -3.000000e+00  0  1233 0  3.983147e-04 -1.095446e-03 -9.291871e-04   7.666295e-02 9.633750e+01 -1.216609e-03 1.568152e-03 -1.133279e-03 1.184014e-01 2.725494e-08 2.733671e-08 2.716893e-08 2.645083e-04 3.797646e-02 -5.493138e-04 1.000000e+00  7.957747e-04  
-1.600000e+01  -7.000000e+00  -3.000000e+00  0  1232 0  2.286293e-04 8.651827e-04 -7.408998e-04   7.141083e-02 8.973750e+01 -2.496454e-03 -2.113179e-05 -1.020150e-03 1.183728e-01 2.714561e-08 2.699571e-08 2.718990e-08 1.251151e-04 3.738098e-02 -2.038357e-04 1.000000e+00  7.957747e-04  
-1.400000e+01  -8.000000e+00  -4.000000e+00  0  1006 0  1.629398e-03 1.348318e-03 -1.081548e-03   7.059516e-02 8.871250e+01 -1.741862e-03 1.277184e-04 -1.614099e-03 1.205383e-01 2.821690e-08 2.786254e-08 2.832192e-08 4.864484e-04 4.014830e-02 3.047436e-04 1.000000e+00  7.957747e-04  
-1.400000e+01  -7.000000e+00  -4.000000e+00  0  1025 0  1.632828e-03 1.429916e-04 2.377542e-03   7.570802e-02 9.513750e+01 -9.489306e-04 1.198239e-03 -1.117685e-03 1.198746e-01 2.799900e-08 2.785930e-08 2.801671e-08 3.194215e-04 3.924331e-02 -3.725157e-04 1.000000e+00  7.957747e-04  
-1.400000e+01  -8.000000e+00  -3.000000e+00  0  1215 0  -6.418080e-04 -2.257108e-03 9.419821e-04   7.436017e-02 9.344375e+01 -1.270550e-03 4.894627e-04 -1.868807e-03 1.200292e-01 2.794381e-08 2.799315e-08 2.786048e-08 9.557325e-04 3.955980e-02 6.803663e-04 1.000000e+00  7.957747e-04  
-1.400000e+01  -7.000000e+00  -3.000000e+00  0  1234 0  -8.532563e-04 2.644551e-04 -8.653062e-04   7.605617e-02 9.557500e+01 -6.663047e-04 1.223422e-03 -1.338136e-03 1.217859e-01 2.842097e-08 2.825215e-08 2.845348e-08 4.129493e-04 3.931756e-02 1.083117e-04 1.000000e+00  7.957747e-04  
-1.300000e+01  -8.000000e+00  -4.000000e+00  0  2295 0  -9.292156e-04 3.394984e-04 -1.929055e-03   7.121189e-02 8.948750e+01 -9.956700e-04 -5.407168e-04 -8.310424e-04 1.224439e-01 2.896975e-08 2.874581e-08 2.902134e-08 1.493994e-04 4.075283e-02 8.169006e-04 1.000000e+00  7.957747e-04  
-1.300000e+01  -7.000000e+00  -4.000000e+00  0  2311 0  -2.147168e-03 -5.537920e-04 -1.831608e-03   7.642421e-02 9.603750e+01 -1.302141e-05 8.073006e-04 -7.453747e-04 1.200512e-01 2.820068e-08 2.807427e-08 2.821668e-08 4.296741e-04 4.055373e-02 -3.966825e-04 1.000000e+00  7.957747e-04  
-1.300000e+01  -8.000000e+00  -3.000000e+00  0  2471 0  2.286603e-03 6.005413e-04 -1.579872e-04   7.346990e-02 9.232500e+01 -1.612543e-04 -2.743619e-03 -1.383986e-03 1.232286e-01 2.931430e-08 2.913096e-08 2.937642e-08 8.338593e-04 4.006880e-02 8.649536e-04 1.000000e+00  7.957747e-04  
-1.300000e+01  -7.000000e+00  -3.000000e+00  0  2487 0  1.354287e-03 -4.384342e-04 2.301993e-03   7.538473e-02 9.473125e+01 -8.439533e-05 -1.237280e-03 -6.231409e-04 1.231001e-01 2.914997e-08 2.879769e-08 2.929951e-08 -2.044439e-05 4.057803e-02 3.179739e-04 1.000000e+00  7.957747e-04  
-1.200000e+01  -8.000000e+00  -4.000000e+00  0  2296 0  -3.800145e-04 3.622336e-04 -1.347290e-04   7.297751e-02 9.170625e+01 1.283532e-03 6.259745e-04 -1.240560e-04 1.223743e-01 2.869492e-08 2.888026e-08 2.855243e-08 -4.650531e-04 4.062082e-02 8.209229e-04 1.000000e+00  7.957747e-04  
-1.200000e+01  -7.000000e+00  -4.000000e+00  0  2312 0  1.444737e-03 -3.414061e-04 -7.308977e-05   7.489235e-02 9.411250e+01 1.081659e-03 1.742180e-03 -2.634836e-04 1.198558e-01 2.807380e-08 2.815507e-08 2.799810e-08 2.765645e-04 4.074271e-02 -1.050247e-04 1.000000e+00  7.957747e-04  
-1.200000e+01  -8.000000e+00  -3.000000e+00  0  2472 0  -5.166503e-04 1.398660e-04 -4.779749e-04   7.392747e-02 9.290000e+01 9.874877e-04 -1.020844e-03 -2.794880e-04 1.240197e-01 2.939265e-08 2.934381e-08 2.938349e-08 4.842364e-04 4.083461e-02 7.212352e-04 1.000000e+00  7.957747e-04  
-1.200000e+01  -7.000000e+00  -3.000000e+00  0  2488 0  -1.701958e-03 -1.063567e-03 -1.656301e-03   7.655850e-02 9.620625e+01 5.402760e-04 1.544629e-03 1.315031e-04 1.235371e-01 2.940868e-08 2.947121e-08 2.935439e-08 -2.925500e-04 4.123700e-02 -2.131703e-04 1.000000e+00  7.957747e-04  
-1.100000e+01  -8.000000e+00  -4.000000e+00  0  2297 0  1.552473e-03 -5.419778e-04 -1.090368e-03   7.458399e-02 9.372500e+01 2.612546e-03 -4.622305e-04 -1.108273e-04 1.243772e-01 2.946112e-08 2.967407e-08 2.932573e-08 -4.496603e-04 4.120414e-02 -2.139160e-04 1.000000e+00  7.957747e-04  
-1.100000e+01  -7.000000e+00  -4.000000e+00  0  2313 0  -4.852605e-05 -6.586603e-04 5.798111e-04   7.620040e-02 9.575625e+01 2.504554e-03 6.147069e-04 -1.735029e-03 1.230768e-01 2.926900e-08 2.913752e-08 2.928240e-08 2.486770e-04 4.100934e-02 4.806383e-05 1.000000e+00  7.957747e-04  
-1.100000e+01  -8.000000e+00  -3.000000e+00  0  2473 0  -1.455669e-03 -7.946387e-05 -2.946158e-04   7.618548e-02 9.573750e+01 1.607539e-03 -5.976314e-04 3.398170e-05 1.239041e-01 2.907564e-08 2.915236e-08 2.900576e-08 3.238447e-04 4.154901e-02 -6.751553e-05 1.000000e+00  7.957747e-04  
-1.100000e+01  -7.000000e+00  -3.000000e+00  0  2489 0  7.255007e-04 1.360276e-03 -1.247590e-03   7.794613e-02 9.795000e+01 2.034276e-03 2.046043e-04 -1.103252e-03 1.248563e-01 2.971375e-08 2.982242e-08 2.961722e-08 7.736454e-05 4.118876e-02 -5.676055e-05 1.000000e+00  7.957747e-04  
-1.000000e+01  -8.000000e+00  -4.000000e+00  0  2298 0  -3.053411e-03 1.396034e-05 -4.849126e-05   7.667289e-02 9.635000e+01 3.383523e-03 -9.618192e-04 -6.382032e-04 1.264567e-01 3.030440e-08 3.034206e-08 3.025476e-08 -9.091492e-05 4.221910e-02 -4.263161e-04 1.000000e+00  7.957747e-04  
-1.000000e+01  -7.000000e+00  -4.000000e+00  0  2314 0  -1.071836e-03 -2.259135e-04 7.696817e-04   8.131326e-02 1.021813e+02 3.291947e-03 1.224829e-04 -6.613246e-04 1.252642e-01 2.994197e-08 2.989038e-08 2.988351e-08 2.140536e-04 4.206428e-02 6.360514e-05 1.000000e+00  7.957747e-04  
-1.000000e+01  -8.000000e+00  -3.000000e+00  0  2474 0  2.212311e-03 9.732934e-04 8.812359e-04   7.834402e-02 9.845000e+01 2.993661e-03 5.158211e-04 -1.036906e-03 1.251797e-01 2.965269e-08 2.967479e-08 2.959182e-08 6.253481e-04 4.241326e-02 -2.933546e-04 1.000000e+00  7.957747e-04  
-1.000000e+01  -7.000000e+00  -3.000000e+00  0  2490 0  9.984463e-05 -9.425430e-04 -2.907479e-05   8.149230e-02 1.024062e+02 3.335793e-03 7.866355e-04 -1.321576e-03 1.247805e-01 2.946794e-08 2.945903e-08 2.941544e-08 3.020090e-04 4.204340e-02 1.185309e-04 1.000000e+00  7.957747e-04  
-9.000000e+00  -8.000000e+00  -4.000000e+00  0  2299 0  -2.163561e-03 -6.044746e-04 -1.965922e-03   7.856783e-02 9.873125e+01 3.268428e-03 -9.057637e-04 1.236554e-04 1.265182e-01 3.043156e-08 3.010627e-08 3.056178e-08 -2.461740e-05 4.248762e-02 -2.798838e-04 1.000000e+00  7.957747e-04  
-9.000000e+00  -7.000000e+00  -4.000000e+00  0  2315 0  4.226657e-04 9.661547e-04 -3.067499e-03   8.016436e-02 1.007375e+02 3.183731e-03 -6.964992e-04 5.941609e-04 1.255377e-01 3.006311e-08 2.999198e-08 3.004546e-08 -4.960534e-06 4.248593e-02 4.081049e-04 1.000000e+00  7.957747e-04  
-9.000000e+00  -8.000000e+00  -3.000000e+00  0  2475 0  1.083184e-03 7.932403e-04 1.713214e-03   8.088055e-02 1.016375e+02 2.851970e-03 1.612248e-03 -1.760801e-04 1.244106e-01 2.947403e-08 2.937149e-08 2.948173e-08 6.195814e-04 4.293701e-02 -9.786350e-05 1.000000e+00  7.957747e-04  
-9.000000e+00  -7.000000e+00  -3.000000e+00  0  2491 0  -8.162445e-04 1.932757e-04 5.880730e-04   8.260142e-02 1.038000e+02 3.542221e-03 1.708858e-03 -3.287172e-05 1.232791e-01 2.889791e-08 2.883963e-08 2.887449e-08 3.014172e-04 4.314118e-02 5.194805e-04 1.000000e+00  7.957747e-04  
-8.000000e+00  -8.000000e+00  -4.000000e+00  0  2300 0  1.944850e-03 8.699291e-04 1.862771e-03   7.636453e-02 9.596250e+01 3.421887e-03 -1.052774e-03 -5.876445e-04 1.266566e-01 3.076722e-08 3.043438e-08 3.087547e-08 1.583367e-04 4.248693e-02 -1.915499e-04 1.000000e+00  7.957747e-04  
-8.000000e+00  -7.000000e+00  -4.000000e+00  0  2316 0  1.320052e-03 6.256177e-04 -2.892728e-04   7.746867e-02 9.735000e+01 3.754371e-03 -1.172552e-03 -1.274730e-03 1.273676e-01 3.109161e-08 3.077871e-08 3.118065e-08 -1.177238e-04 4.192153e-02 4.923798e-04 1.000000e+00  7.957747e-04  
-8.000000e+00  -8.000000e+00  -3.000000e+00  0  2476 0  -2.505229e-03 4.148587e-04 1.075128e-03   7.926414e-02 9.960625e+01 3.132782e-03 1.580792e-05 6.066697e-05 1.247930e-01 2.985573e-08 2.947501e-08 3.001810e-08 1.093371e-04 4.301759e-02 1.443262e-04 1.000000e+00  7.957747e-04  
-8.000000e+00  -7.000000e+00  -3.000000e+00  0  2492 0  -3.665169e-04 -1.440371e-03 -2.025129e-03   8.028372e-02 1.008875e+02 3.831210e-03 -6.815178e-05 2.779565e-04 1.236193e-01 2.922544e-08 2.896969e-08 2.931079e-08 2.147862e-04 4.306659e-02 7.037099e-04 1.000000e+00  7.957747e-04  
-7.000000e+00  -8.000000e+00  -4.000000e+00  0  2301 0  -1.249051e-03 5.382208e-04 5.246633e-05   7.799090e-02 9.800625e+01 4.149072e-03 6.648384e-04 -1.319793e-03 1.265748e-01 3.076429e-08 3.016700e-08 3.100317e-08 2.067861e-04 4.278596e-02 -1.300547e-05 1.000000e+00  7.957747e-04  
-7.000000e+00  -7.000000e+00  -4.000000e+00  0  2317 0  -3.802225e-05 2.783980e-04 -9.599303e-04   7.942329e-02 9.980625e+01 5.073916e-03 1.356680e-03 -1.514169e-03 1.259317e-01 3.044574e-08 2.983123e-08 3.067742e-08 -7.068492e-05 4.245612e-02 5.896238e-04 1.000000e+00  7.957747e-04  
-7.000000e+00  -8.000000e+00  -3.000000e+00  0  2477 0  2.590793e-03 -7.652413e-04 8.363442e-04   8.013451e-02 1.007000e+02 4.093089e-03 2.528257e-05 3.384087e-04 1.283429e-01 3.142350e-08 3.076600e-08 3.169241e-08 -2.194459e-04 4.266764e-02 7.622480e-04 1.000000e+00  7.957747e-04  
-7.000000e+00  -7.000000e+00  -3.000000e+00  0  2493 0  2.255009e-04 -1.426972e-03 5.463199e-04   8.130331e-02 1.021688e+02 4.096179e-03 1.090006e-04 -1.270822e-04 1.265996e-01 3.057735e-08 3.007962e-08 3.076477e-08 1.147236e-05 4.309609e-02 1.215490e-04 1.000000e+00  7.957747e-04  
-6.000000e+00  -8.000000e+00  -4.000000e+00  0  2302 0  1.851722e-03 -1.467709e-03 -1.067586e-03   8.054235e-02 1.012125e+02 4.665649e-03 7.827605e-04 -6.944178e-04 1.272469e-01 3.102259e-08 2.957125e-08 3.170998e-08 -2.777228e-04 4.340759e-02 4.852323e-04 1.000000e+00  7.957747e-04  
-6.000000e+00  -7.000000e+00  -4.000000e+00  0  2318 0  2.321122e-04 1.536793e-04 6.550094e-04   8.116902e-02 1.020000e+02 5.411432e-03 1.303436e-03 2.177760e-04 1.239859e-01 2.953604e-08 2.861985e-08 2.995802e-08 -1.559643e-04 4.345552e-02 4.674593e-04 1.000000e+00  7.957747e-04  
-6.000000e+00  -8.000000e+00  -3.000000e+00  0  2478 0  -7.573148e-04 1.418922e-03 -3.664784e-04   8.320322e-02 1.045563e+02 4.997604e-03 -3.027075e-04 -1.248309e-03 1.266397e-01 3.061542e-08 2.958729e-08 3.105241e-08 -2.034412e-04 4.297758e-02 6.270411e-04 1.000000e+00  7.957747e-04  
-6.000000e+00  -7.000000e+00  -3.000000e+00  0  2494 0  1.081638e-03 -8.863472e-04 -1.231881e-03   8.165146e-02 1.026063e+02 4.728646e-03 3.336019e-04 -9.018087e-04 1.241406e-01 2.952325e-08 2.880287e-08 2.982341e-08 -2.911153e-04 4.358968e-02 1.162023e-04 1.000000e+00  7.957747e-04  
-5.000000e+00  -8.000000e+00  -4.000000e+00  0  2303 0  -2.876622e-04 1.288140e-03 6.401565e-04   7.924921e-02 9.958750e+01 5.755061e-03 -1.546145e-03 -1.803539e-04 1.278677e-01 3.117183e-08 3.023468e-08 3.160295e-08 -2.444339e-04 4.351599e-02 1.400285e-04 1.000000e+00  7.957747e-04  
-5.000000e+00  -7.000000e+00  -4.000000e+00  0  2319 0  -2.998634e-04 1.889805e-03 -1.625289e-03   7.966700e-02 1.001125e+02 5.480418e-03 -5.253451e-04 2.849381e-04 1.267352e-01 3.069071e-08 2.998398e-08 3.101329e-08 -3.705981e-04 4.360413e-02 -2.256059e-04 1.000000e+00  7.957747e-04  
-5.000000e+00  -8.000000e+00  -3.000000e+00  0  2479 0  9.196347e-04 -1.771222e-03 -2.058620e-03   8.165643e-02 1.026125e+02 5.602203e-03 -2.047774e-03 -1.549158e-03 1.249091e-01 2.991671e-08 2.877155e-08 3.043906e-08 -1.184866e-04 4.434403e-02 -2.515312e-04 1.000000e+00  7.957747e-04  
-5.000000e+00  -7.000000e+00  -3.000000e+00  0  2495 0  -1.117265e-04 8.339553e-04 3.980870e-04   8.180564e-02 1.028000e+02 4.698899e-03 -5.652064e-04 6.694830e-05 1.233623e-01 2.917024e-08 2.829700e-08 2.956944e-08 -6.184461e-04 4.460219e-02 -2.071924e-04 1.000000e+00  7.957747e-04  
-4.000000e+00  -8.000000e+00  -4.000000e+00  0  2304 0  -2.343509e-03 1.644772e-03 -1.105311e-03   8.068658e-02 1.013937e+02 5.545483e-03 -1.962983e-03 6.620632e-04 1.263683e-01 3.048071e-08 2.988170e-08 3.073451e-08 -1.089628e-04 4.367873e-02 -8.863732e-04 1.000000e+00  7.957747e-04  
-4.000000e+00  -7.000000e+00  -4.000000e+00  0  2320 0  -1.696391e-03 -2.087607e-03 -5.249997e-04   8.036330e-02 1.009875e+02 4.691111e-03 -6.253053e-04 9.091217e-04 1.259933e-01 3.042709e-08 3.002643e-08 3.058596e-08 -5.232467e-04 4.379936e-02 -6.125702e-04 1.000000e+00  7.957747e-04  
-4.000000e+00  -8.000000e+00  -3.000000e+00  0  2480 0  9.530754e-04 2.124506e-04 1.412803e-03   7.959239e-02 1.000187e+02 5.537545e-03 -1.465146e-03 1.516327e-03 1.232521e-01 2.917075e-08 2.869612e-08 2.936957e-08 -3.799564e-04 4.475705e-02 -4.726126e-04 1.000000e+00  7.957747e-04  
-4.000000e+00  -7.000000e+00  -3.000000e+00  0  2496 0  3.307742e-03 -5.679046e-05 -9.438828e-04   8.352650e-02 1.049625e+02 4.493870e-03 -1.523328e-03 2.504363e-03 1.239214e-01 2.944024e-08 2.874929e-08 2.976074e-08 -7.636356e-04 4.443496e-02 -3.741736e-04 1.000000e+00  7.957747e-04  
-3.000000e+00  -8.000000e+00  -4.000000e+00  0  2305 0  -1.928318e-03 -1.300976e-04 3.224758e-03   8.124362e-02 1.020938e+02 5.177898e-03 -7.507089e-04 -1.148864e-03 1.256525e-01 3.025576e-08 2.918063e-08 3.074324e-08 -3.299404e-04 4.344637e-02 -6.096205e-04 1.000000e+00  7.957747e-04  
-3.000000e+00  -7.000000e+00  -4.000000e+00  0  2321 0  3.569149e-03 -6.539890e-04 9.973618e-04   8.271581e-02 1.039437e+02 4.132212e-03 -6.566944e-04 8.036779e-05 1.262095e-01 3.049632e-08 2.948075e-08 3.096580e-08 -2.305806e-04 4.306752e-02 -2.225772e-04 1.000000e+00  7.957747e-04  
-3.000000e+00  -8.000000e+00  -3.000000e+00  0  2481 0  -9.646859e-04 -9.476545e-04 -3.322601e-03   7.892096e-02 9.917500e+01 5.562491e-03 1.782325e-03 2.515494e-04 1.220174e-01 2.855345e-08 2.793022e-08 2.882145e-08 -5.747065e-04 4.418656e-02 -7.565543e-05 1.000000e+00  7.957747e-04  
-3.000000e+00  -7.000000e+00  -3.000000e+00  0  2497 0  1.217321e-04 2.144823e-04 -2.013331e-03   8.238755e-02 1.035312e+02 4.566071e-03 1.044259e-03 1.596575e-03 1.250082e-01 2.985141e-08 2.882407e-08 3.028711e-08 -4.929858e-04 4.323617e-02 -2.558067e-05 1.000000e+00  7.957747e-04  
-2.000000e+00  -8.000000e+00  -4.000000e+00  0  2306 0  1.447641e-03 -8.062164e-04 -8.224484e-04   8.076119e-02 1.014875e+02 4.712092e-03 1.769868e-03 -9.838071e-04 1.247374e-01 2.976292e-08 2.826338e-08 3.047307e-08 -1.488737e-04 4.328582e-02 -2.761805e-04 1.000000e+00  7.957747e-04  
-2.000000e+00  -7.000000e+00  -4.000000e+00  0  2322 0  3.993302e-03 -8.330986e-04 3.802897e-04   8.225326e-02 1.033625e+02 4.420032e-03 1.543867e-03 -9.117798e-04 1.245473e-01 2.957623e-08 2.783931e-08 3.041364e-08 4.437323e-04 4.290451e-02 3.508287e-04 1.000000e+00  7.957747e-04  
-2.000000e+00  -8.000000e+00  -3.000000e+00  0  2482 0  -8.090285e-04 1.016106e-03 -9.137588e-04   8.060701e-02 1.012938e+02 4.460458e-03 1.078358e-03 -1.347240e-04 1.243723e-01 2.971456e-08 2.806494e-08 3.046116e-08 -4.746328e-04 4.375982e-02 -3.484947e-05 1.000000e+00  7.957747e-04  
-2.000000e+00  -7.000000e+00  -3.000000e+00  0  2498 0  -3.111686e-03 -6.474704e-04 -4.065991e-04   8.372545e-02 1.052125e+02 4.418206e-03 1.061564e-03 -4.090628e-04 1.250925e-01 2.975442e-08 2.807829e-08 3.048502e-08 6.810043e-05 4.329782e-02 3.455016e-05 1.000000e+00  7.957747e-04  
-1.000000e+00  -8.000000e+00  -4.000000e+00  0  2307 0  -1.056640e-04 -6.976316e-04 -6.811658e-04   8.009473e-02 1.006500e+02 3.656196e-03 3.215562e-04 1.474382e-03 1.238948e-01 2.918764e-08 2.788079e-08 2.979145e-08 2.380239e-04 4.290791e-02 -6.491256e-05 1.000000e+00  7.957747e-04  
-1.000000e+00  -7.000000e+00  -4.000000e+00  0  2323 0  5.959990e-04 -5.268212e-04 1.480968e-03   8.080595e-02 1.015438e+02 3.714086e-03 1.788105e-04 9.575027e-04 1.224470e-01 2.851156e-08 2.748885e-08 2.897244e-08 4.308818e-04 4.335724e-02 6.086254e-04 1.000000e+00  7.957747e-04  
-1.000000e+00  -8.000000e+00  -3.000000e+00  0  2483 0  1.372817e-03 4.360997e-04 1.308541e-03   7.968192e-02 1.001312e+02 3.126388e-03 -7.318625e-04 2.068648e-03 1.233836e-01 2.913822e-08 2.760682e-08 2.984981e-08 6.880217e-05 4.299986e-02 -3.041192e-04 1.000000e+00  7.957747e-04  
-1.000000e+00  -7.000000e+00  -3.000000e+00  0  2499 0  -8.638705e-04 8.361254e-04 8.150664e-04   8.501361e-02 1.068312e+02 3.695224e-03 -1.693757e-03 8.560425e-04 1.220280e-01 2.832155e-08 2.697378e-08 2.892257e-08 3.546653e-04 4.299772e-02 1.148563e-04 1.000000e+00  7.957747e-04  
0.000000e+00  -8.000000e+00  -4.000000e+00  0  2308 0  -7.708726e-04 -2.507806e-05 -2.015619e-03   7.794116e-02 9.794375e+01 3.442704e-03 -6.956210e-04 6.657505e-04 1.228766e-01 2.857643e-08 2.862686e-08 2.850792e-08 1.726035e-04 4.222196e-02 -7.565210e-05 1.000000e+00  7.957747e-04  
0.000000e+00  -7.000000e+00  -4.000000e+00  0  2324 0  -9.051173e-04 -1.447866e-03 1.950548e-04   7.837386e-02 9.848750e+01 2.912375e-03 -2.204010e-03 6.746797e-04 1.218866e-01 2.818302e-08 2.854429e-08 2.797355e-08 2.176294e-04 4.274399e-02 4.330316e-04 1.000000e+00  7.957747e-04  
0.000000e+00  -8.000000e+00  -3.000000e+00  0  2484 0  1.574225e-03 -9.893798e-04 -9.966682e-04   7.803566e-02 9.806250e+01 2.572009e-03 2.050996e-04 6.099902e-04 1.215447e-01 2.823497e-08 2.729110e-08 2.866766e-08 3.677989e-04 4.161237e-02 2.108324e-04 1.000000e+00  7.957747e-04  
0.000000e+00  -7.000000e+00  -3.000000e+00  0  2500 0  2.619882e-03 -1.042082e-03 -1.550832e-03   8.177580e-02 1.027625e+02 2.478029e-03 -1.828608e-03 9.611895e-04 1.204424e-01 2.777945e-08 2.697803e-08 2.815732e-08 3.996850e-04 4.176380e-02 -3.064769e-04 1.000000e+00  7.957747e-04  
-1.500000e+01  -6.000000e+00  -4.000000e+00  0  1043 0  8.274348e-04 1.393040e-03 2.100875e-03   7.406673e-02 9.307500e+01 -2.345385e-03 -9.412365e-05 -6.281588e-04 1.197117e-01 2.761506e-08 2.653046e-08 2.812210e-08 7.918536e-05 3.851443e-02 1.686118e-04 1.000000e+00  7.957747e-04  
-1.600000e+01  -6.000000e+00  -4.000000e+00  0  1042 0  1.243904e-04 1.410933e-03 -2.619484e-04   7.226629e-02 9.081250e+01 -3.115610e-03 -1.323987e-05 -1.165728e-03 1.215063e-01 2.815096e-08 2.755656e-08 2.840416e-08 1.554958e-04 3.788049e-02 5.115339e-04 1.000000e+00  7.957747e-04  
-1.500000e+01  -6.000000e+00  -3.000000e+00  0  1252 0  7.475709e-04 1.094898e-04 8.347945e-04   7.607606e-02 9.560000e+01 -2.274763e-03 3.966839e-04 -5.773349e-04 1.191659e-01 2.723343e-08 2.666343e-08 2.747893e-08 -4.120891e-04 3.838002e-02 -4.312037e-04 1.000000e+00  7.957747e-04  
-1.600000e+01  -6.000000e+00  -3.000000e+00  0  1251 0  1.246336e-03 1.820103e-04 -2.503113e-04   7.184354e-02 9.028125e+01 -3.018859e-03 -1.334786e-03 -1.153256e-03 1.181512e-01 2.685836e-08 2.632376e-08 2.709170e-08 -1.790153e-04 3.763352e-02 8.028159e-05 1.000000e+00  7.957747e-04  
-1.400000e+01  -6.000000e+00  -4.000000e+00  0  1044 0  1.814335e-03 -6.057484e-04 -1.356175e-03   7.573786e-02 9.517500e+01 -5.344613e-04 8.304931e-04 -6.144359e-04 1.193094e-01 2.742846e-08 2.697398e-08 2.761353e-08 -2.850404e-06 3.897845e-02 -3.893467e-04 1.000000e+00  7.957747e-04  
-1.400000e+01  -6.000000e+00  -3.000000e+00  0  1253 0  -4.672619e-04 9.066066e-04 9.036888e-05   7.407171e-02 9.308125e+01 -6.433446e-04 3.007934e-04 -2.633440e-04 1.217243e-01 2.809089e-08 2.761977e-08 2.828575e-08 -6.184767e-04 3.935191e-02 -6.363570e-04 1.000000e+00  7.957747e-04  
-1.300000e+01  -6.000000e+00  -4.000000e+00  0  2327 0  7.529448e-04 -2.515782e-03 -2.645553e-03   7.739406e-02 9.725625e+01 6.378135e-04 1.518815e-03 -8.730701e-04 1.195859e-01 2.777187e-08 2.786806e-08 2.767368e-08 -8.482390e-05 4.028804e-02 -1.126529e-04 1.000000e+00  7.957747e-04  
-1.300000e+01  -6.000000e+00  -3.000000e+00  0  2503 0  -2.376891e-03 1.000277e-03 1.133288e-04   7.632972e-02 9.591875e+01 5.856440e-04 4.468233e-07 -1.109365e-03 1.219699e-01 2.846118e-08 2.813104e-08 2.858695e-08 -5.477114e-04 4.057490e-02 -2.274562e-04 1.000000e+00  7.957747e-04  
-1.200000e+01  -6.000000e+00  -4.000000e+00  0  2328 0  5.197640e-04 -1.006935e-03 -1.110479e-03   7.587215e-02 9.534375e+01 1.463838e-03 1.504009e-03 -1.085775e-03 1.224021e-01 2.901589e-08 2.943174e-08 2.877724e-08 3.657733e-04 4.080268e-02 -9.867420e-05 1.000000e+00  7.957747e-04  
-1.200000e+01  -6.000000e+00  -3.000000e+00  0  2504 0  -1.935190e-03 8.788208e-04 -2.064022e-03   7.909503e-02 9.939375e+01 1.040645e-03 2.205511e-03 -1.251628e-03 1.243087e-01 2.957060e-08 2.988715e-08 2.939094e-08 -1.864061e-04 4.079855e-02 -3.297756e-04 1.000000e+00  7.957747e-04  
-1.100000e+01  -6.000000e+00  -4.000000e+00  0  2329 0  -6.541020e-04 -5.433041e-04 1.859944e-03   7.584230e-02 9.530625e+01 2.370362e-03 8.909248e-04 -1.484126e-03 1.236879e-01 2.943791e-08 2.962858e-08 2.930312e-08 6.272187e-04 4.133763e-02 4.825649e-05 1.000000e+00  7.957747e-04  
-1.100000e+01  -6.000000e+00  -3.000000e+00  0  2505 0  -5.881866e-04 1.884755e-03 -1.876071e-03   7.710560e-02 9.689375e+01 2.321938e-03 -3.545430e-04 -9.607111e-04 1.263036e-01 3.030245e-08 3.088173e-08 2.996981e-08 -1.334675e-04 4.102858e-02 4.628609e-05 1.000000e+00  7.957747e-04  
-1.000000e+01  -6.000000e+00  -4.000000e+00  0  2330 0  -7.972932e-04 6.946293e-04 -2.010024e-03   7.930890e-02 9.966250e+01 2.997206e-03 9.318461e-04 -3.935491e-04 1.240789e-01 2.952320e-08 2.963318e-08 2.935356e-08 2.649213e-04 4.227102e-02 2.740990e-04 1.000000e+00  7.957747e-04  
-1.000000e+01  -6.000000e+00  -3.000000e+00  0  2506 0  9.824020e-04 2.507927e-04 -2.297309e-05   8.017430e-02 1.007500e+02 3.193436e-03 9.065707e-04 -8.008052e-04 1.238073e-01 2.923087e-08 2.945843e-08 2.905241e-08 -2.844439e-04 4.197448e-02 3.432871e-04 1.000000e+00  7.957747e-04  
-9.000000e+00  -6.000000e+00  -4.000000e+00  0  2331 0  -1.173739e-03 -5.832786e-04 -1.130132e-03   7.764274e-02 9.756875e+01 3.330189e-03 -9.901909e-04 -4.759449e-04 1.247983e-01 2.973516e-08 2.988089e-08 2.956718e-08 1.734664e-05 4.269651e-02 3.971191e-04 1.000000e+00  7.957747e-04  
-9.000000e+00  -6.000000e+00  -3.000000e+00  0  2507 0  1.694200e-03 -5.371625e-04 -2.920139e-04   7.949292e-02 9.989375e+01 3.920733e-03 2.703393e-04 -6.220243e-04 1.230308e-01 2.903253e-08 2.911134e-08 2.891672e-08 -2.761075e-04 4.307518e-02 3.380673e-04 1.000000e+00  7.957747e-04  
-8.000000e+00  -6.000000e+00  -4.000000e+00  0  2332 0  -5.100943e-04 6.583842e-04 6.419786e-04   8.000520e-02 1.005375e+02 3.439740e-03 -8.382590e-04 -2.241706e-04 1.259685e-01 3.022856e-08 3.013823e-08 3.021191e-08 -2.767379e-04 4.247183e-02 2.850700e-04 1.000000e+00  7.957747e-04  
-8.000000e+00  -6.000000e+00  -3.000000e+00  0  2508 0  -6.094834e-04 -1.318320e-03 -1.144980e-03   8.120384e-02 1.020438e+02 3.989334e-03 -1.952271e-04 1.256971e-04 1.239673e-01 2.939897e-08 2.941904e-08 2.931912e-08 -3.589553e-04 4.339010e-02 -4.206436e-04 1.000000e+00  7.957747e-04  
-7.000000e+00  -6.000000e+00  -4.000000e+00  0  2333 0  -4.439172e-04 -2.188323e-03 -8.668868e-04   8.272078e-02 1.039500e+02 4.870527e-03 1.598109e-03 3.271713e-04 1.254603e-01 3.002212e-08 2.972452e-08 3.010704e-08 -3.089661e-04 4.269155e-02 4.190212e-04 1.000000e+00  7.957747e-04  
-7.000000e+00  -6.000000e+00  -3.000000e+00  0  2509 0  1.245909e-03 2.402815e-03 1.649285e-03   8.437201e-02 1.060250e+02 4.070142e-03 1.116149e-03 -4.368498e-04 1.247874e-01 2.974854e-08 2.972757e-08 2.971028e-08 1.762708e-06 4.359625e-02 -4.001173e-04 1.000000e+00  7.957747e-04  
-6.000000e+00  -6.000000e+00  -4.000000e+00  0  2334 0  -6.516556e-04 1.407865e-03 5.945439e-04   8.084574e-02 1.015938e+02 6.178512e-03 1.150617e-03 4.907278e-04 1.262671e-01 3.020293e-08 2.958131e-08 3.047617e-08 -3.191334e-04 4.360313e-02 -1.652639e-04 1.000000e+00  7.957747e-04  
-6.000000e+00  -6.000000e+00  -3.000000e+00  0  2510 0  5.847442e-04 -2.160453e-03 -4.124518e-04   8.141770e-02 1.023125e+02 4.950389e-03 1.188238e-03 -9.702372e-04 1.248470e-01 2.969609e-08 2.944261e-08 2.978848e-08 -1.005460e-04 4.450098e-02 1.790502e-04 1.000000e+00  7.957747e-04  
-5.000000e+00  -6.000000e+00  -4.000000e+00  0  2335 0  5.367658e-04 -7.256323e-04 -4.462066e-05   7.959239e-02 1.000187e+02 5.768558e-03 -9.695296e-05 6.097574e-04 1.296869e-01 3.182384e-08 3.094623e-08 3.220994e-08 -6.312927e-04 4.371119e-02 -5.262716e-04 1.000000e+00  7.957747e-04  
-5.000000e+00  -6.000000e+00  -3.000000e+00  0  2511 0  4.429379e-04 1.603260e-03 2.375291e-03   8.093029e-02 1.017000e+02 4.626508e-03 -1.486644e-04 9.411746e-04 1.256386e-01 2.992594e-08 2.901980e-08 3.033480e-08 -7.168687e-04 4.452062e-02 -1.517204e-04 1.000000e+00  7.957747e-04  
-4.000000e+00  -6.000000e+00  -4.000000e+00  0  2336 0  -2.339319e-03 -1.027689e-03 -4.575523e-04   7.995546e-02 1.004750e+02 4.414666e-03 1.435951e-04 6.759765e-04 1.277526e-01 3.125662e-08 3.047643e-08 3.159536e-08 -1.824675e-04 4.365359e-02 -5.325767e-05 1.000000e+00  7.957747e-04  
-4.000000e+00  -6.000000e+00  -3.000000e+00  0  2512 0  2.487050e-03 -4.995853e-05 -3.240776e-04   8.419296e-02 1.058000e+02 4.065617e-03 -2.558496e-03 2.524084e-03 1.244644e-01 2.967626e-08 2.860373e-08 3.017370e-08 -2.072933e-04 4.366538e-02 -4.553330e-04 1.000000e+00  7.957747e-04  
-3.000000e+00  -6.000000e+00  -4.000000e+00  0  2337 0  6.784018e-04 -3.701202e-04 1.157023e-03   8.143262e-02 1.023312e+02 4.316403e-03 -6.809947e-04 1.675804e-04 1.251341e-01 2.997237e-08 2.889369e-08 3.047845e-08 6.897026e-04 4.302467e-02 4.412805e-04 1.000000e+00  7.957747e-04  
-3.000000e+00  -6.000000e+00  -3.000000e+00  0  2513 0  -7.415602e-04 -3.754846e-04 -2.008148e-03   8.345687e-02 1.048750e+02 4.448735e-03 3.811293e-04 1.254492e-03 1.231095e-01 2.912509e-08 2.780978e-08 2.970367e-08 4.415462e-04 4.266283e-02 -1.448211e-04 1.000000e+00  7.957747e-04  
-2.000000e+00  -6.000000e+00  -4.000000e+00  0  2338 0  -1.479445e-03 9.491637e-04 -2.288196e-03   8.032848e-02 1.009437e+02 4.538698e-03 -7.465165e-04 4.794383e-05 1.213076e-01 2.824446e-08 2.717313e-08 2.874969e-08 6.574615e-04 4.294413e-02 6.167447e-04 1.000000e+00  7.957747e-04  
-2.000000e+00  -6.000000e+00  -3.000000e+00  0  2514 0  1.291956e-04 -2.634174e-04 -1.953420e-04   8.341211e-02 1.048187e+02 4.820647e-03 9.846092e-04 -9.029037e-04 1.227353e-01 2.852152e-08 2.712770e-08 2.915942e-08 7.442546e-04 4.309718e-02 5.934704e-04 1.000000e+00  7.957747e-04  
-1.000000e+00  -6.000000e+00  -4.000000e+00  0  2339 0  -2.187636e-03 -2.127746e-03 -2.385073e-03   7.925916e-02 9.960000e+01 3.366996e-03 -3.234591e-05 1.378023e-03 1.204829e-01 2.767689e-08 2.733580e-08 2.778907e-08 2.241287e-05 4.338951e-02 2.047843e-05 1.000000e+00  7.957747e-04  
-1.000000e+00  -6.000000e+00  -3.000000e+00  0  2515 0  5.504680e-04 -4.016897e-04 1.186140e-03   8.499869e-02 1.068125e+02 3.782356e-03 -1.373863e-03 6.109786e-04 1.216790e-01 2.797457e-08 2.755729e-08 2.813659e-08 7.371619e-04 4.373589e-02 6.127957e-04 1.000000e+00  7.957747e-04  
0.000000e+00  -6.000000e+00  -4.000000e+00  0  2340 0  -1.176538e-03 4.106390e-04 -7.263291e-04   7.761788e-02 9.753750e+01 2.712640e-03 -1.363212e-03 1.236889e-03 1.223971e-01 2.827470e-08 2.809773e-08 2.830032e-08 1.724896e-04 4.256005e-02 -2.211406e-04 1.000000e+00  7.957747e-04  
0.000000e+00  -6.000000e+00  -3.000000e+00  0  2516 0  -1.497281e-03 -2.619670e-05 1.402897e-03   8.219358e-02 1.032875e+02 2.440909e-03 -1.428703e-03 1.763845e-03 1.209797e-01 2.791721e-08 2.779516e-08 2.795916e-08 3.589180e-04 4.239901e-02 -4.054896e-04 1.000000e+00  7.957747e-04  
-1.500000e+01  -5.000000e+00  -4.000000e+00  0  3320 0  -1.151486e-03 -8.638146e-04 -5.746901e-04   7.068469e-02 8.882500e+01 -1.887717e-03 1.172038e-04 -7.233812e-04 1.219716e-01 2.845645e-08 2.708528e-08 2.907828e-08 -4.438116e-05 3.861798e-02 -2.502839e-04 1.000000e+00  7.957747e-04  