TITLE="Directional rigidity cutoff: x=7.571000e+06,0.000000e+00,0.000000e+00[m] (1.188353e+00,0.000000e+00,0.000000e+00)R_Earth"
VARIABLES="Lon", "Lat", "Cutoff Rigidity[0]", "Min Energy(spec=0)[MeV]"
ZONE I=50, J=51, DATAPACKING=POINT
0.000000e+00 9.000000e+01  -1.000000e+00  -1.000000e+00 
7.200000e+00 9.000000e+01  -1.000000e+00  -1.000000e+00 
1.440000e+01 9.000000e+01  -1.000000e+00  -1.000000e+00 
2.160000e+01 9.000000e+01  -1.000000e+00  -1.000000e+00 
2.880000e+01 9.000000e+01  -1.000000e+00  -1.000000e+00 
3.600000e+01 9.000000e+01  -1.000000e+00  -1.000000e+00 
4.320000e+01 9.000000e+01  -1.000000e+00  -1.000000e+00 
5.040000e+01 9.000000e+01  -1.000000e+00  -1.000000e+00 
5.760000e+01 9.000000e+01  -1.000000e+00  -1.000000e+00 
6.480000e+01 9.000000e+01  -1.000000e+00  -1.000000e+00 
7.200000e+01 9.000000e+01  -1.000000e+00  -1.000000e+00 
7.920000e+01 9.000000e+01  -1.000000e+00  -1.000000e+00 
8.640000e+01 9.000000e+01  -1.000000e+00  -1.000000e+00 
9.360000e+01 9.000000e+01  -1.000000e+00  -1.000000e+00 
1.008000e+02 9.000000e+01  -1.000000e+00  -1.000000e+00 
1.080000e+02 9.000000e+01  -1.000000e+00  -1.000000e+00 
1.152000e+02 9.000000e+01  -1.000000e+00  -1.000000e+00 
1.224000e+02 9.000000e+01  -1.000000e+00  -1.000000e+00 
1.296000e+02 9.000000e+01  -1.000000e+00  -1.000000e+00 
1.368000e+02 9.000000e+01  -1.000000e+00  -1.000000e+00 
1.440000e+02 9.000000e+01  -1.000000e+00  -1.000000e+00 
1.512000e+02 9.000000e+01  -1.000000e+00  -1.000000e+00 
1.584000e+02 9.000000e+01  -1.000000e+00  -1.000000e+00 
1.656000e+02 9.000000e+01  -1.000000e+00  -1.000000e+00 
1.728000e+02 9.000000e+01  -1.000000e+00  -1.000000e+00 
1.800000e+02 9.000000e+01  -1.000000e+00  -1.000000e+00 
1.872000e+02 9.000000e+01  -1.000000e+00  -1.000000e+00 
1.944000e+02 9.000000e+01  -1.000000e+00  -1.000000e+00 
2.016000e+02 9.000000e+01  -1.000000e+00  -1.000000e+00 
2.088000e+02 9.000000e+01  -1.000000e+00  -1.000000e+00 
2.160000e+02 9.000000e+01  -1.000000e+00  -1.000000e+00 
2.232000e+02 9.000000e+01  -1.000000e+00  -1.000000e+00 
2.304000e+02 9.000000e+01  -1.000000e+00  -1.000000e+00 
2.376000e+02 9.000000e+01  -1.000000e+00  -1.000000e+00 
2.448000e+02 9.000000e+01  -1.000000e+00  -1.000000e+00 
2.520000e+02 9.000000e+01  -1.000000e+00  -1.000000e+00 
2.592000e+02 9.000000e+01  -1.000000e+00  -1.000000e+00 
2.664000e+02 9.000000e+01  -1.000000e+00  -1.000000e+00 
2.736000e+02 9.000000e+01  -1.000000e+00  -1.000000e+00 
2.808000e+02 9.000000e+01  -1.000000e+00  -1.000000e+00 
2.880000e+02 9.000000e+01  -1.000000e+00  -1.000000e+00 
2.952000e+02 9.000000e+01  -1.000000e+00  -1.000000e+00 
3.024000e+02 9.000000e+01  -1.000000e+00  -1.000000e+00 
3.096000e+02 9.000000e+01  -1.000000e+00  -1.000000e+00 
3.168000e+02 9.000000e+01  -1.000000e+00  -1.000000e+00 
3.240000e+02 9.000000e+01  -1.000000e+00  -1.000000e+00 
3.312000e+02 9.000000e+01  -1.000000e+00  -1.000000e+00 
3.384000e+02 9.000000e+01  -1.000000e+00  -1.000000e+00 
3.456000e+02 9.000000e+01  -1.000000e+00  -1.000000e+00 
3.528000e+02 9.000000e+01  -1.000000e+00  -1.000000e+00 
0.000000e+00 7.373980e+01  -1.000000e+00  -1.000000e+00 
7.200000e+00 7.373980e+01  -1.000000e+00  -1.000000e+00 
1.440000e+01 7.373980e+01  -1.000000e+00  -1.000000e+00 
2.160000e+01 7.373980e+01  -1.000000e+00  -1.000000e+00 
2.880000e+01 7.373980e+01  -1.000000e+00  -1.000000e+00 
3.600000e+01 7.373980e+01  -1.000000e+00  -1.000000e+00 
4.320000e+01 7.373980e+01  -1.000000e+00  -1.000000e+00 
5.040000e+01 7.373980e+01  -1.000000e+00  -1.000000e+00 
5.760000e+01 7.373980e+01  -1.000000e+00  -1.000000e+00 
6.480000e+01 7.373980e+01  -1.000000e+00  -1.000000e+00 
7.200000e+01 7.373980e+01  -1.000000e+00  -1.000000e+00 
7.920000e+01 7.373980e+01  -1.000000e+00  -1.000000e+00 
8.640000e+01 7.373980e+01  -1.000000e+00  -1.000000e+00 
9.360000e+01 7.373980e+01  -1.000000e+00  -1.000000e+00 
1.008000e+02 7.373980e+01  -1.000000e+00  -1.000000e+00 
1.080000e+02 7.373980e+01  -1.000000e+00  -1.000000e+00 
1.152000e+02 7.373980e+01  -1.000000e+00  -1.000000e+00 
1.224000e+02 7.373980e+01  -1.000000e+00  -1.000000e+00 
1.296000e+02 7.373980e+01  -1.000000e+00  -1.000000e+00 
1.368000e+02 7.373980e+01  -1.000000e+00  -1.000000e+00 
1.440000e+02 7.373980e+01  -1.000000e+00  -1.000000e+00 
1.512000e+02 7.373980e+01  -1.000000e+00  -1.000000e+00 
1.584000e+02 7.373980e+01  -1.000000e+00  -1.000000e+00 
1.656000e+02 7.373980e+01  -1.000000e+00  -1.000000e+00 
1.728000e+02 7.373980e+01  -1.000000e+00  -1.000000e+00 
1.800000e+02 7.373980e+01  -1.000000e+00  -1.000000e+00 
1.872000e+02 7.373980e+01  -1.000000e+00  -1.000000e+00 
1.944000e+02 7.373980e+01  -1.000000e+00  -1.000000e+00 
2.016000e+02 7.373980e+01  -1.000000e+00  -1.000000e+00 
2.088000e+02 7.373980e+01  -1.000000e+00  -1.000000e+00 
2.160000e+02 7.373980e+01  -1.000000e+00  -1.000000e+00 
2.232000e+02 7.373980e+01  -1.000000e+00  -1.000000e+00 
2.304000e+02 7.373980e+01  -1.000000e+00  -1.000000e+00 
2.376000e+02 7.373980e+01  -1.000000e+00  -1.000000e+00 
2.448000e+02 7.373980e+01  -1.000000e+00  -1.000000e+00 
2.520000e+02 7.373980e+01  -1.000000e+00  -1.000000e+00 
2.592000e+02 7.373980e+01  -1.000000e+00  -1.000000e+00 
2.664000e+02 7.373980e+01  -1.000000e+00  -1.000000e+00 
2.736000e+02 7.373980e+01  -1.000000e+00  -1.000000e+00 
2.808000e+02 7.373980e+01  -1.000000e+00  -1.000000e+00 
2.880000e+02 7.373980e+01  -1.000000e+00  -1.000000e+00 
2.952000e+02 7.373980e+01  -1.000000e+00  -1.000000e+00 
3.024000e+02 7.373980e+01  -1.000000e+00  -1.000000e+00 
3.096000e+02 7.373980e+01  -1.000000e+00  -1.000000e+00 
3.168000e+02 7.373980e+01  -1.000000e+00  -1.000000e+00 
3.240000e+02 7.373980e+01  -1.000000e+00  -1.000000e+00 
3.312000e+02 7.373980e+01  -1.000000e+00  -1.000000e+00 
3.384000e+02 7.373980e+01  -1.000000e+00  -1.000000e+00 
3.456000e+02 7.373980e+01  -1.000000e+00  -1.000000e+00 
3.528000e+02 7.373980e+01  -1.000000e+00  -1.000000e+00 
0.000000e+00 6.692608e+01  -1.000000e+00  -1.000000e+00 
7.200000e+00 6.692608e+01  -1.000000e+00  -1.000000e+00 
1.440000e+01 6.692608e+01  -1.000000e+00  -1.000000e+00 
2.160000e+01 6.692608e+01  -1.000000e+00  -1.000000e+00 
2.880000e+01 6.692608e+01  -1.000000e+00  -1.000000e+00 
3.600000e+01 6.692608e+01  -1.000000e+00  -1.000000e+00 
4.320000e+01 6.692608e+01  -1.000000e+00  -1.000000e+00 
5.040000e+01 6.692608e+01  -1.000000e+00  -1.000000e+00 
5.760000e+01 6.692608e+01  -1.000000e+00  -1.000000e+00 
6.480000e+01 6.692608e+01  -1.000000e+00  -1.000000e+00 
7.200000e+01 6.692608e+01  -1.000000e+00  -1.000000e+00 
7.920000e+01 6.692608e+01  -1.000000e+00  -1.000000e+00 
8.640000e+01 6.692608e+01  -1.000000e+00  -1.000000e+00 
9.360000e+01 6.692608e+01  -1.000000e+00  -1.000000e+00 
1.008000e+02 6.692608e+01  -1.000000e+00  -1.000000e+00 
1.080000e+02 6.692608e+01  -1.000000e+00  -1.000000e+00 
1.152000e+02 6.692608e+01  -1.000000e+00  -1.000000e+00 
1.224000e+02 6.692608e+01  -1.000000e+00  -1.000000e+00 
1.296000e+02 6.692608e+01  -1.000000e+00  -1.000000e+00 
1.368000e+02 6.692608e+01  -1.000000e+00  -1.000000e+00 
1.440000e+02 6.692608e+01  -1.000000e+00  -1.000000e+00 
1.512000e+02 6.692608e+01  -1.000000e+00  -1.000000e+00 
1.584000e+02 6.692608e+01  -1.000000e+00  -1.000000e+00 
1.656000e+02 6.692608e+01  -1.000000e+00  -1.000000e+00 
1.728000e+02 6.692608e+01  -1.000000e+00  -1.000000e+00 
1.800000e+02 6.692608e+01  -1.000000e+00  -1.000000e+00 
1.872000e+02 6.692608e+01  -1.000000e+00  -1.000000e+00 
1.944000e+02 6.692608e+01  -1.000000e+00  -1.000000e+00 
2.016000e+02 6.692608e+01  -1.000000e+00  -1.000000e+00 
2.088000e+02 6.692608e+01  -1.000000e+00  -1.000000e+00 
2.160000e+02 6.692608e+01  -1.000000e+00  -1.000000e+00 
2.232000e+02 6.692608e+01  -1.000000e+00  -1.000000e+00 
2.304000e+02 6.692608e+01  -1.000000e+00  -1.000000e+00 
2.376000e+02 6.692608e+01  -1.000000e+00  -1.000000e+00 
2.448000e+02 6.692608e+01  -1.000000e+00  -1.000000e+00 
2.520000e+02 6.692608e+01  -1.000000e+00  -1.000000e+00 
2.592000e+02 6.692608e+01  -1.000000e+00  -1.000000e+00 
2.664000e+02 6.692608e+01  -1.000000e+00  -1.000000e+00 
2.736000e+02 6.692608e+01  -1.000000e+00  -1.000000e+00 
2.808000e+02 6.692608e+01  -1.000000e+00  -1.000000e+00 
2.880000e+02 6.692608e+01  -1.000000e+00  -1.000000e+00 
2.952000e+02 6.692608e+01  -1.000000e+00  -1.000000e+00 
3.024000e+02 6.692608e+01  -1.000000e+00  -1.000000e+00 
3.096000e+02 6.692608e+01  -1.000000e+00  -1.000000e+00 
3.168000e+02 6.692608e+01  -1.000000e+00  -1.000000e+00 
3.240000e+02 6.692608e+01  -1.000000e+00  -1.000000e+00 
3.312000e+02 6.692608e+01  -1.000000e+00  -1.000000e+00 
3.384000e+02 6.692608e+01  -1.000000e+00  -1.000000e+00 
3.456000e+02 6.692608e+01  -1.000000e+00  -1.000000e+00 
3.528000e+02 6.692608e+01  -1.000000e+00  -1.000000e+00 
0.000000e+00 6.164236e+01  -1.000000e+00  -1.000000e+00 
7.200000e+00 6.164236e+01  -1.000000e+00  -1.000000e+00 
1.440000e+01 6.164236e+01  -1.000000e+00  -1.000000e+00 
2.160000e+01 6.164236e+01  -1.000000e+00  -1.000000e+00 
2.880000e+01 6.164236e+01  -1.000000e+00  -1.000000e+00 
3.600000e+01 6.164236e+01  -1.000000e+00  -1.000000e+00 
4.320000e+01 6.164236e+01  -1.000000e+00  -1.000000e+00 
5.040000e+01 6.164236e+01  -1.000000e+00  -1.000000e+00 
5.760000e+01 6.164236e+01  -1.000000e+00  -1.000000e+00 
6.480000e+01 6.164236e+01  -1.000000e+00  -1.000000e+00 
7.200000e+01 6.164236e+01  -1.000000e+00  -1.000000e+00 
7.920000e+01 6.164236e+01  -1.000000e+00  -1.000000e+00 
8.640000e+01 6.164236e+01  -1.000000e+00  -1.000000e+00 
9.360000e+01 6.164236e+01  -1.000000e+00  -1.000000e+00 
1.008000e+02 6.164236e+01  -1.000000e+00  -1.000000e+00 
1.080000e+02 6.164236e+01  -1.000000e+00  -1.000000e+00 
1.152000e+02 6.164236e+01  -1.000000e+00  -1.000000e+00 
1.224000e+02 6.164236e+01  -1.000000e+00  -1.000000e+00 
1.296000e+02 6.164236e+01  -1.000000e+00  -1.000000e+00 
1.368000e+02 6.164236e+01  -1.000000e+00  -1.000000e+00 
1.440000e+02 6.164236e+01  -1.000000e+00  -1.000000e+00 
1.512000e+02 6.164236e+01  -1.000000e+00  -1.000000e+00 
1.584000e+02 6.164236e+01  -1.000000e+00  -1.000000e+00 
1.656000e+02 6.164236e+01  -1.000000e+00  -1.000000e+00 
1.728000e+02 6.164236e+01  -1.000000e+00  -1.000000e+00 
1.800000e+02 6.164236e+01  -1.000000e+00  -1.000000e+00 
1.872000e+02 6.164236e+01  -1.000000e+00  -1.000000e+00 
1.944000e+02 6.164236e+01  -1.000000e+00  -1.000000e+00 
2.016000e+02 6.164236e+01  -1.000000e+00  -1.000000e+00 
2.088000e+02 6.164236e+01  -1.000000e+00  -1.000000e+00 
2.160000e+02 6.164236e+01  -1.000000e+00  -1.000000e+00 
2.232000e+02 6.164236e+01  -1.000000e+00  -1.000000e+00 
2.304000e+02 6.164236e+01  -1.000000e+00  -1.000000e+00 
2.376000e+02 6.164236e+01  -1.000000e+00  -1.000000e+00 
2.448000e+02 6.164236e+01  -1.000000e+00  -1.000000e+00 
2.520000e+02 6.164236e+01  -1.000000e+00  -1.000000e+00 
2.592000e+02 6.164236e+01  -1.000000e+00  -1.000000e+00 
2.664000e+02 6.164236e+01  -1.000000e+00  -1.000000e+00 
2.736000e+02 6.164236e+01  -1.000000e+00  -1.000000e+00 
2.808000e+02 6.164236e+01  -1.000000e+00  -1.000000e+00 
2.880000e+02 6.164236e+01  -1.000000e+00  -1.000000e+00 
2.952000e+02 6.164236e+01  -1.000000e+00  -1.000000e+00 
3.024000e+02 6.164236e+01  -1.000000e+00  -1.000000e+00 
3.096000e+02 6.164236e+01  -1.000000e+00  -1.000000e+00 
3.168000e+02 6.164236e+01  -1.000000e+00  -1.000000e+00 
3.240000e+02 6.164236e+01  -1.000000e+00  -1.000000e+00 
3.312000e+02 6.164236e+01  -1.000000e+00  -1.000000e+00 
3.384000e+02 6.164236e+01  -1.000000e+00  -1.000000e+00 
3.456000e+02 6.164236e+01  -1.000000e+00  -1.000000e+00 
3.528000e+02 6.164236e+01  -1.000000e+00  -1.000000e+00 
0.000000e+00 5.714012e+01  -1.000000e+00  -1.000000e+00 
7.200000e+00 5.714012e+01  -1.000000e+00  -1.000000e+00 
1.440000e+01 5.714012e+01  -1.000000e+00  -1.000000e+00 
2.160000e+01 5.714012e+01  -1.000000e+00  -1.000000e+00 
2.880000e+01 5.714012e+01  -1.000000e+00  -1.000000e+00 
3.600000e+01 5.714012e+01  -1.000000e+00  -1.000000e+00 
4.320000e+01 5.714012e+01  -1.000000e+00  -1.000000e+00 
5.040000e+01 5.714012e+01  -1.000000e+00  -1.000000e+00 
5.760000e+01 5.714012e+01  -1.000000e+00  -1.000000e+00 
6.480000e+01 5.714012e+01  -1.000000e+00  -1.000000e+00 
7.200000e+01 5.714012e+01  -1.000000e+00  -1.000000e+00 
7.920000e+01 5.714012e+01  -1.000000e+00  -1.000000e+00 
8.640000e+01 5.714012e+01  -1.000000e+00  -1.000000e+00 
9.360000e+01 5.714012e+01  -1.000000e+00  -1.000000e+00 
1.008000e+02 5.714012e+01  -1.000000e+00  -1.000000e+00 
1.080000e+02 5.714012e+01  -1.000000e+00  -1.000000e+00 
1.152000e+02 5.714012e+01  -1.000000e+00  -1.000000e+00 
1.224000e+02 5.714012e+01  -1.000000e+00  -1.000000e+00 
1.296000e+02 5.714012e+01  -1.000000e+00  -1.000000e+00 
1.368000e+02 5.714012e+01  -1.000000e+00  -1.000000e+00 
1.440000e+02 5.714012e+01  -1.000000e+00  -1.000000e+00 
1.512000e+02 5.714012e+01  -1.000000e+00  -1.000000e+00 
1.584000e+02 5.714012e+01  -1.000000e+00  -1.000000e+00 
1.656000e+02 5.714012e+01  -1.000000e+00  -1.000000e+00 
1.728000e+02 5.714012e+01  -1.000000e+00  -1.000000e+00 
1.800000e+02 5.714012e+01  -1.000000e+00  -1.000000e+00 
1.872000e+02 5.714012e+01  -1.000000e+00  -1.000000e+00 
1.944000e+02 5.714012e+01  -1.000000e+00  -1.000000e+00 
2.016000e+02 5.714012e+01  -1.000000e+00  -1.000000e+00 
2.088000e+02 5.714012e+01  -1.000000e+00  -1.000000e+00 
2.160000e+02 5.714012e+01  -1.000000e+00  -1.000000e+00 
2.232000e+02 5.714012e+01  -1.000000e+00  -1.000000e+00 
2.304000e+02 5.714012e+01  -1.000000e+00  -1.000000e+00 
2.376000e+02 5.714012e+01  -1.000000e+00  -1.000000e+00 
2.448000e+02 5.714012e+01  -1.000000e+00  -1.000000e+00 
2.520000e+02 5.714012e+01  -1.000000e+00  -1.000000e+00 
2.592000e+02 5.714012e+01  -1.000000e+00  -1.000000e+00 
2.664000e+02 5.714012e+01  -1.000000e+00  -1.000000e+00 
2.736000e+02 5.714012e+01  -1.000000e+00  -1.000000e+00 
2.808000e+02 5.714012e+01  -1.000000e+00  -1.000000e+00 
2.880000e+02 5.714012e+01  -1.000000e+00  -1.000000e+00 
2.952000e+02 5.714012e+01  -1.000000e+00  -1.000000e+00 
3.024000e+02 5.714012e+01  -1.000000e+00  -1.000000e+00 
3.096000e+02 5.714012e+01  -1.000000e+00  -1.000000e+00 
3.168000e+02 5.714012e+01  -1.000000e+00  -1.000000e+00 
3.240000e+02 5.714012e+01  -1.000000e+00  -1.000000e+00 
3.312000e+02 5.714012e+01  -1.000000e+00  -1.000000e+00 
3.384000e+02 5.714012e+01  -1.000000e+00  -1.000000e+00 
3.456000e+02 5.714012e+01  -1.000000e+00  -1.000000e+00 
3.528000e+02 5.714012e+01  -1.000000e+00  -1.000000e+00 
0.000000e+00 5.313010e+01  -1.000000e+00  -1.000000e+00 
7.200000e+00 5.313010e+01  -1.000000e+00  -1.000000e+00 
1.440000e+01 5.313010e+01  -1.000000e+00  -1.000000e+00 
2.160000e+01 5.313010e+01  -1.000000e+00  -1.000000e+00 
2.880000e+01 5.313010e+01  -1.000000e+00  -1.000000e+00 
3.600000e+01 5.313010e+01  -1.000000e+00  -1.000000e+00 
4.320000e+01 5.313010e+01  -1.000000e+00  -1.000000e+00 
5.040000e+01 5.313010e+01  -1.000000e+00  -1.000000e+00 
5.760000e+01 5.313010e+01  -1.000000e+00  -1.000000e+00 
6.480000e+01 5.313010e+01  -1.000000e+00  -1.000000e+00 
7.200000e+01 5.313010e+01  -1.000000e+00  -1.000000e+00 
7.920000e+01 5.313010e+01  -1.000000e+00  -1.000000e+00 
8.640000e+01 5.313010e+01  -1.000000e+00  -1.000000e+00 
9.360000e+01 5.313010e+01  -1.000000e+00  -1.000000e+00 
1.008000e+02 5.313010e+01  -1.000000e+00  -1.000000e+00 
1.080000e+02 5.313010e+01  -1.000000e+00  -1.000000e+00 
1.152000e+02 5.313010e+01  -1.000000e+00  -1.000000e+00 
1.224000e+02 5.313010e+01  -1.000000e+00  -1.000000e+00 
1.296000e+02 5.313010e+01  -1.000000e+00  -1.000000e+00 
1.368000e+02 5.313010e+01  -1.000000e+00  -1.000000e+00 
1.440000e+02 5.313010e+01  -1.000000e+00  -1.000000e+00 
1.512000e+02 5.313010e+01  -1.000000e+00  -1.000000e+00 
1.584000e+02 5.313010e+01  -1.000000e+00  -1.000000e+00 
1.656000e+02 5.313010e+01  -1.000000e+00  -1.000000e+00 
1.728000e+02 5.313010e+01  -1.000000e+00  -1.000000e+00 
1.800000e+02 5.313010e+01  -1.000000e+00  -1.000000e+00 
1.872000e+02 5.313010e+01  -1.000000e+00  -1.000000e+00 
1.944000e+02 5.313010e+01  -1.000000e+00  -1.000000e+00 
2.016000e+02 5.313010e+01  -1.000000e+00  -1.000000e+00 
2.088000e+02 5.313010e+01  -1.000000e+00  -1.000000e+00 
2.160000e+02 5.313010e+01  -1.000000e+00  -1.000000e+00 
2.232000e+02 5.313010e+01  -1.000000e+00  -1.000000e+00 
2.304000e+02 5.313010e+01  -1.000000e+00  -1.000000e+00 
2.376000e+02 5.313010e+01  -1.000000e+00  -1.000000e+00 
2.448000e+02 5.313010e+01  -1.000000e+00  -1.000000e+00 
2.520000e+02 5.313010e+01  -1.000000e+00  -1.000000e+00 
2.592000e+02 5.313010e+01  -1.000000e+00  -1.000000e+00 
2.664000e+02 5.313010e+01  -1.000000e+00  -1.000000e+00 
2.736000e+02 5.313010e+01  -1.000000e+00  -1.000000e+00 
2.808000e+02 5.313010e+01  -1.000000e+00  -1.000000e+00 
2.880000e+02 5.313010e+01  -1.000000e+00  -1.000000e+00 
2.952000e+02 5.313010e+01  -1.000000e+00  -1.000000e+00 
3.024000e+02 5.313010e+01  -1.000000e+00  -1.000000e+00 
3.096000e+02 5.313010e+01  -1.000000e+00  -1.000000e+00 
3.168000e+02 5.313010e+01  -1.000000e+00  -1.000000e+00 
3.240000e+02 5.313010e+01  -1.000000e+00  -1.000000e+00 
3.312000e+02 5.313010e+01  -1.000000e+00  -1.000000e+00 
3.384000e+02 5.313010e+01  -1.000000e+00  -1.000000e+00 
3.456000e+02 5.313010e+01  -1.000000e+00  -1.000000e+00 
3.528000e+02 5.313010e+01  -1.000000e+00  -1.000000e+00 
0.000000e+00 4.946420e+01  -1.000000e+00  -1.000000e+00 
7.200000e+00 4.946420e+01  -1.000000e+00  -1.000000e+00 
1.440000e+01 4.946420e+01  -1.000000e+00  -1.000000e+00 
2.160000e+01 4.946420e+01  -1.000000e+00  -1.000000e+00 
2.880000e+01 4.946420e+01  -1.000000e+00  -1.000000e+00 
3.600000e+01 4.946420e+01  -1.000000e+00  -1.000000e+00 
4.320000e+01 4.946420e+01  -1.000000e+00  -1.000000e+00 
5.040000e+01 4.946420e+01  -1.000000e+00  -1.000000e+00 
5.760000e+01 4.946420e+01  -1.000000e+00  -1.000000e+00 
6.480000e+01 4.946420e+01  -1.000000e+00  -1.000000e+00 
7.200000e+01 4.946420e+01  -1.000000e+00  -1.000000e+00 
7.920000e+01 4.946420e+01  -1.000000e+00  -1.000000e+00 
8.640000e+01 4.946420e+01  -1.000000e+00  -1.000000e+00 
9.360000e+01 4.946420e+01  -1.000000e+00  -1.000000e+00 
1.008000e+02 4.946420e+01  -1.000000e+00  -1.000000e+00 
1.080000e+02 4.946420e+01  -1.000000e+00  -1.000000e+00 
1.152000e+02 4.946420e+01  -1.000000e+00  -1.000000e+00 
1.224000e+02 4.946420e+01  -1.000000e+00  -1.000000e+00 
1.296000e+02 4.946420e+01  -1.000000e+00  -1.000000e+00 
1.368000e+02 4.946420e+01  -1.000000e+00  -1.000000e+00 
1.440000e+02 4.946420e+01  -1.000000e+00  -1.000000e+00 
1.512000e+02 4.946420e+01  -1.000000e+00  -1.000000e+00 
1.584000e+02 4.946420e+01  -1.000000e+00  -1.000000e+00 
1.656000e+02 4.946420e+01  -1.000000e+00  -1.000000e+00 
1.728000e+02 4.946420e+01  -1.000000e+00  -1.000000e+00 
1.800000e+02 4.946420e+01  -1.000000e+00  -1.000000e+00 
1.872000e+02 4.946420e+01  -1.000000e+00  -1.000000e+00 
1.944000e+02 4.946420e+01  -1.000000e+00  -1.000000e+00 
2.016000e+02 4.946420e+01  -1.000000e+00  -1.000000e+00 
2.088000e+02 4.946420e+01  -1.000000e+00  -1.000000e+00 
2.160000e+02 4.946420e+01  -1.000000e+00  -1.000000e+00 
2.232000e+02 4.946420e+01  -1.000000e+00  -1.000000e+00 
2.304000e+02 4.946420e+01  -1.000000e+00  -1.000000e+00 
2.376000e+02 4.946420e+01  -1.000000e+00  -1.000000e+00 
2.448000e+02 4.946420e+01  -1.000000e+00  -1.000000e+00 
2.520000e+02 4.946420e+01  -1.000000e+00  -1.000000e+00 
2.592000e+02 4.946420e+01  -1.000000e+00  -1.000000e+00 
2.664000e+02 4.946420e+01  -1.000000e+00  -1.000000e+00 
2.736000e+02 4.946420e+01  -1.000000e+00  -1.000000e+00 
2.808000e+02 4.946420e+01  -1.000000e+00  -1.000000e+00 
2.880000e+02 4.946420e+01  -1.000000e+00  -1.000000e+00 
2.952000e+02 4.946420e+01  -1.000000e+00  -1.000000e+00 
3.024000e+02 4.946420e+01  -1.000000e+00  -1.000000e+00 
3.096000e+02 4.946420e+01  -1.000000e+00  -1.000000e+00 
3.168000e+02 4.946420e+01  -1.000000e+00  -1.000000e+00 
3.240000e+02 4.946420e+01  -1.000000e+00  -1.000000e+00 
3.312000e+02 4.946420e+01  -1.000000e+00  -1.000000e+00 
3.384000e+02 4.946420e+01  -1.000000e+00  -1.000000e+00 
3.456000e+02 4.946420e+01  -1.000000e+00  -1.000000e+00 
3.528000e+02 4.946420e+01  -1.000000e+00  -1.000000e+00 
0.000000e+00 4.605448e+01  -1.000000e+00  -1.000000e+00 
7.200000e+00 4.605448e+01  -1.000000e+00  -1.000000e+00 
1.440000e+01 4.605448e+01  -1.000000e+00  -1.000000e+00 
2.160000e+01 4.605448e+01  -1.000000e+00  -1.000000e+00 
2.880000e+01 4.605448e+01  -1.000000e+00  -1.000000e+00 
3.600000e+01 4.605448e+01  -1.000000e+00  -1.000000e+00 
4.320000e+01 4.605448e+01  -1.000000e+00  -1.000000e+00 
5.040000e+01 4.605448e+01  -1.000000e+00  -1.000000e+00 
5.760000e+01 4.605448e+01  -1.000000e+00  -1.000000e+00 
6.480000e+01 4.605448e+01  -1.000000e+00  -1.000000e+00 
7.200000e+01 4.605448e+01  -1.000000e+00  -1.000000e+00 
7.920000e+01 4.605448e+01  -1.000000e+00  -1.000000e+00 
8.640000e+01 4.605448e+01  -1.000000e+00  -1.000000e+00 
9.360000e+01 4.605448e+01  -1.000000e+00  -1.000000e+00 
1.008000e+02 4.605448e+01  -1.000000e+00  -1.000000e+00 
1.080000e+02 4.605448e+01  -1.000000e+00  -1.000000e+00 
1.152000e+02 4.605448e+01  -1.000000e+00  -1.000000e+00 
1.224000e+02 4.605448e+01  -1.000000e+00  -1.000000e+00 
1.296000e+02 4.605448e+01  -1.000000e+00  -1.000000e+00 
1.368000e+02 4.605448e+01  -1.000000e+00  -1.000000e+00 
1.440000e+02 4.605448e+01  -1.000000e+00  -1.000000e+00 
1.512000e+02 4.605448e+01  -1.000000e+00  -1.000000e+00 
1.584000e+02 4.605448e+01  -1.000000e+00  -1.000000e+00 
1.656000e+02 4.605448e+01  -1.000000e+00  -1.000000e+00 
1.728000e+02 4.605448e+01  -1.000000e+00  -1.000000e+00 
1.800000e+02 4.605448e+01  -1.000000e+00  -1.000000e+00 
1.872000e+02 4.605448e+01  -1.000000e+00  -1.000000e+00 
1.944000e+02 4.605448e+01  -1.000000e+00  -1.000000e+00 
2.016000e+02 4.605448e+01  -1.000000e+00  -1.000000e+00 
2.088000e+02 4.605448e+01  -1.000000e+00  -1.000000e+00 
2.160000e+02 4.605448e+01  -1.000000e+00  -1.000000e+00 
2.232000e+02 4.605448e+01  -1.000000e+00  -1.000000e+00 
2.304000e+02 4.605448e+01  -1.000000e+00  -1.000000e+00 
2.376000e+02 4.605448e+01  -1.000000e+00  -1.000000e+00 
2.448000e+02 4.605448e+01  -1.000000e+00  -1.000000e+00 
2.520000e+02 4.605448e+01  -1.000000e+00  -1.000000e+00 
2.592000e+02 4.605448e+01  -1.000000e+00  -1.000000e+00 
2.664000e+02 4.605448e+01  -1.000000e+00  -1.000000e+00 
2.736000e+02 4.605448e+01  -1.000000e+00  -1.000000e+00 
2.808000e+02 4.605448e+01  -1.000000e+00  -1.000000e+00 
2.880000e+02 4.605448e+01  -1.000000e+00  -1.000000e+00 
2.952000e+02 4.605448e+01  -1.000000e+00  -1.000000e+00 
3.024000e+02 4.605448e+01  -1.000000e+00  -1.000000e+00 
3.096000e+02 4.605448e+01  -1.000000e+00  -1.000000e+00 
3.168000e+02 4.605448e+01  -1.000000e+00  -1.000000e+00 
3.240000e+02 4.605448e+01  -1.000000e+00  -1.000000e+00 
3.312000e+02 4.605448e+01  -1.000000e+00  -1.000000e+00 
3.384000e+02 4.605448e+01  -1.000000e+00  -1.000000e+00 
3.456000e+02 4.605448e+01  -1.000000e+00  -1.000000e+00 
3.528000e+02 4.605448e+01  -1.000000e+00  -1.000000e+00 
0.000000e+00 4.284364e+01  -1.000000e+00  -1.000000e+00 
7.200000e+00 4.284364e+01  -1.000000e+00  -1.000000e+00 
1.440000e+01 4.284364e+01  -1.000000e+00  -1.000000e+00 
2.160000e+01 4.284364e+01  -1.000000e+00  -1.000000e+00 
2.880000e+01 4.284364e+01  -1.000000e+00  -1.000000e+00 
3.600000e+01 4.284364e+01  -1.000000e+00  -1.000000e+00 
4.320000e+01 4.284364e+01  -1.000000e+00  -1.000000e+00 
5.040000e+01 4.284364e+01  -1.000000e+00  -1.000000e+00 
5.760000e+01 4.284364e+01  -1.000000e+00  -1.000000e+00 
6.480000e+01 4.284364e+01  -1.000000e+00  -1.000000e+00 
7.200000e+01 4.284364e+01  -1.000000e+00  -1.000000e+00 
7.920000e+01 4.284364e+01  -1.000000e+00  -1.000000e+00 
8.640000e+01 4.284364e+01  -1.000000e+00  -1.000000e+00 
9.360000e+01 4.284364e+01  -1.000000e+00  -1.000000e+00 
1.008000e+02 4.284364e+01  -1.000000e+00  -1.000000e+00 
1.080000e+02 4.284364e+01  -1.000000e+00  -1.000000e+00 
1.152000e+02 4.284364e+01  -1.000000e+00  -1.000000e+00 
1.224000e+02 4.284364e+01  -1.000000e+00  -1.000000e+00 
1.296000e+02 4.284364e+01  -1.000000e+00  -1.000000e+00 
1.368000e+02 4.284364e+01  -1.000000e+00  -1.000000e+00 
1.440000e+02 4.284364e+01  -1.000000e+00  -1.000000e+00 
1.512000e+02 4.284364e+01  -1.000000e+00  -1.000000e+00 
1.584000e+02 4.284364e+01  -1.000000e+00  -1.000000e+00 
1.656000e+02 4.284364e+01  -1.000000e+00  -1.000000e+00 
1.728000e+02 4.284364e+01  -1.000000e+00  -1.000000e+00 
1.800000e+02 4.284364e+01  -1.000000e+00  -1.000000e+00 
1.872000e+02 4.284364e+01  -1.000000e+00  -1.000000e+00 
1.944000e+02 4.284364e+01  -1.000000e+00  -1.000000e+00 
2.016000e+02 4.284364e+01  -1.000000e+00  -1.000000e+00 
2.088000e+02 4.284364e+01  -1.000000e+00  -1.000000e+00 
2.160000e+02 4.284364e+01  -1.000000e+00  -1.000000e+00 
2.232000e+02 4.284364e+01  -1.000000e+00  -1.000000e+00 
2.304000e+02 4.284364e+01  -1.000000e+00  -1.000000e+00 
2.376000e+02 4.284364e+01  -1.000000e+00  -1.000000e+00 
2.448000e+02 4.284364e+01  -1.000000e+00  -1.000000e+00 
2.520000e+02 4.284364e+01  -1.000000e+00  -1.000000e+00 
2.592000e+02 4.284364e+01  -1.000000e+00  -1.000000e+00 
2.664000e+02 4.284364e+01  -1.000000e+00  -1.000000e+00 
2.736000e+02 4.284364e+01  -1.000000e+00  -1.000000e+00 
2.808000e+02 4.284364e+01  -1.000000e+00  -1.000000e+00 
2.880000e+02 4.284364e+01  -1.000000e+00  -1.000000e+00 
2.952000e+02 4.284364e+01  -1.000000e+00  -1.000000e+00 
3.024000e+02 4.284364e+01  -1.000000e+00  -1.000000e+00 
3.096000e+02 4.284364e+01  -1.000000e+00  -1.000000e+00 
3.168000e+02 4.284364e+01  -1.000000e+00  -1.000000e+00 
3.240000e+02 4.284364e+01  -1.000000e+00  -1.000000e+00 
3.312000e+02 4.284364e+01  -1.000000e+00  -1.000000e+00 
3.384000e+02 4.284364e+01  -1.000000e+00  -1.000000e+00 
3.456000e+02 4.284364e+01  -1.000000e+00  -1.000000e+00 
3.528000e+02 4.284364e+01  -1.000000e+00  -1.000000e+00 
0.000000e+00 3.979182e+01  -1.000000e+00  -1.000000e+00 
7.200000e+00 3.979182e+01  -1.000000e+00  -1.000000e+00 
1.440000e+01 3.979182e+01  -1.000000e+00  -1.000000e+00 
2.160000e+01 3.979182e+01  -1.000000e+00  -1.000000e+00 
2.880000e+01 3.979182e+01  -1.000000e+00  -1.000000e+00 
3.600000e+01 3.979182e+01  -1.000000e+00  -1.000000e+00 
4.320000e+01 3.979182e+01  -1.000000e+00  -1.000000e+00 
5.040000e+01 3.979182e+01  -1.000000e+00  -1.000000e+00 
5.760000e+01 3.979182e+01  -1.000000e+00  -1.000000e+00 
6.480000e+01 3.979182e+01  -1.000000e+00  -1.000000e+00 
7.200000e+01 3.979182e+01  -1.000000e+00  -1.000000e+00 
7.920000e+01 3.979182e+01  -1.000000e+00  -1.000000e+00 
8.640000e+01 3.979182e+01  -1.000000e+00  -1.000000e+00 
9.360000e+01 3.979182e+01  -1.000000e+00  -1.000000e+00 
1.008000e+02 3.979182e+01  -1.000000e+00  -1.000000e+00 
1.080000e+02 3.979182e+01  -1.000000e+00  -1.000000e+00 
1.152000e+02 3.979182e+01  -1.000000e+00  -1.000000e+00 
1.224000e+02 3.979182e+01  -1.000000e+00  -1.000000e+00 
1.296000e+02 3.979182e+01  -1.000000e+00  -1.000000e+00 
1.368000e+02 3.979182e+01  -1.000000e+00  -1.000000e+00 
1.440000e+02 3.979182e+01  -1.000000e+00  -1.000000e+00 
1.512000e+02 3.979182e+01  -1.000000e+00  -1.000000e+00 
1.584000e+02 3.979182e+01  -1.000000e+00  -1.000000e+00 
1.656000e+02 3.979182e+01  -1.000000e+00  -1.000000e+00 
1.728000e+02 3.979182e+01  -1.000000e+00  -1.000000e+00 
1.800000e+02 3.979182e+01  -1.000000e+00  -1.000000e+00 
1.872000e+02 3.979182e+01  -1.000000e+00  -1.000000e+00 
1.944000e+02 3.979182e+01  -1.000000e+00  -1.000000e+00 
2.016000e+02 3.979182e+01  -1.000000e+00  -1.000000e+00 
2.088000e+02 3.979182e+01  -1.000000e+00  -1.000000e+00 
2.160000e+02 3.979182e+01  -1.000000e+00  -1.000000e+00 
2.232000e+02 3.979182e+01  -1.000000e+00  -1.000000e+00 
2.304000e+02 3.979182e+01  -1.000000e+00  -1.000000e+00 
2.376000e+02 3.979182e+01  -1.000000e+00  -1.000000e+00 
2.448000e+02 3.979182e+01  -1.000000e+00  -1.000000e+00 
2.520000e+02 3.979182e+01  -1.000000e+00  -1.000000e+00 
2.592000e+02 3.979182e+01  -1.000000e+00  -1.000000e+00 
2.664000e+02 3.979182e+01  -1.000000e+00  -1.000000e+00 
2.736000e+02 3.979182e+01  -1.000000e+00  -1.000000e+00 
2.808000e+02 3.979182e+01  -1.000000e+00  -1.000000e+00 
2.880000e+02 3.979182e+01  -1.000000e+00  -1.000000e+00 
2.952000e+02 3.979182e+01  -1.000000e+00  -1.000000e+00 
3.024000e+02 3.979182e+01  -1.000000e+00  -1.000000e+00 
3.096000e+02 3.979182e+01  -1.000000e+00  -1.000000e+00 
3.168000e+02 3.979182e+01  -1.000000e+00  -1.000000e+00 
3.240000e+02 3.979182e+01  -1.000000e+00  -1.000000e+00 
3.312000e+02 3.979182e+01  -1.000000e+00  -1.000000e+00 
3.384000e+02 3.979182e+01  -1.000000e+00  -1.000000e+00 
3.456000e+02 3.979182e+01  -1.000000e+00  -1.000000e+00 
3.528000e+02 3.979182e+01  -1.000000e+00  -1.000000e+00 
0.000000e+00 3.686990e+01  -1.000000e+00  -1.000000e+00 
7.200000e+00 3.686990e+01  -1.000000e+00  -1.000000e+00 
1.440000e+01 3.686990e+01  -1.000000e+00  -1.000000e+00 
2.160000e+01 3.686990e+01  -1.000000e+00  -1.000000e+00 
2.880000e+01 3.686990e+01  -1.000000e+00  -1.000000e+00 
3.600000e+01 3.686990e+01  -1.000000e+00  -1.000000e+00 
4.320000e+01 3.686990e+01  -1.000000e+00  -1.000000e+00 
5.040000e+01 3.686990e+01  -1.000000e+00  -1.000000e+00 
5.760000e+01 3.686990e+01  -1.000000e+00  -1.000000e+00 
6.480000e+01 3.686990e+01  -1.000000e+00  -1.000000e+00 
7.200000e+01 3.686990e+01  -1.000000e+00  -1.000000e+00 
7.920000e+01 3.686990e+01  -1.000000e+00  -1.000000e+00 
8.640000e+01 3.686990e+01  -1.000000e+00  -1.000000e+00 
9.360000e+01 3.686990e+01  -1.000000e+00  -1.000000e+00 
1.008000e+02 3.686990e+01  -1.000000e+00  -1.000000e+00 
1.080000e+02 3.686990e+01  -1.000000e+00  -1.000000e+00 
1.152000e+02 3.686990e+01  -1.000000e+00  -1.000000e+00 
1.224000e+02 3.686990e+01  -1.000000e+00  -1.000000e+00 
1.296000e+02 3.686990e+01  -1.000000e+00  -1.000000e+00 
1.368000e+02 3.686990e+01  -1.000000e+00  -1.000000e+00 
1.440000e+02 3.686990e+01  -1.000000e+00  -1.000000e+00 
1.512000e+02 3.686990e+01  -1.000000e+00  -1.000000e+00 