TITLE="Cutoff Rigidity (Gridless, POINTS/TRAJECTORY)"
VARIABLES="id","x","y","z","lon_deg","lat_deg","Rc_GV","Emin_MeV"
ZONE T="points" I=4 F=POINT
0 7.000000e+03 4.000000e+03 5.000000e+03 2.974488e+01 3.180610e+01 3.613197e+00 2.794762e+03
1 9.000000e+03 -5.000000e+03 -4.000000e+03 -2.905460e+01 -2.123186e+01 3.832332e+00 3.007248e+03
2 7.000000e+03 0.000000e+00 0.000000e+00 0.000000e+00 0.000000e+00 1.234230e+01 1.143964e+04
3 9.000000e+03 0.000000e+00 0.000000e+00 0.000000e+00 0.000000e+00 7.466538e+00 6.586988e+03
