TITLE="Cutoff Rigidity (Gridless)"
VARIABLES="id","x","y","z","lon_deg","lat_deg","Rc_GV","Emin_MeV"
ZONE T="points" I=4 F=POINT
0 7.000000e+03 4.000000e+03 5.000000e+03 2.974488e+01 3.180610e+01 3.612813e+00 2.794390e+03
1 9.000000e+03 -5.000000e+03 -4.000000e+03 -2.905460e+01 -2.123186e+01 3.831366e+00 3.006309e+03
2 7.000000e+03 0.000000e+00 0.000000e+00 0.000000e+00 0.000000e+00 1.234183e+01 1.143917e+04
3 9.000000e+03 0.000000e+00 0.000000e+00 0.000000e+00 0.000000e+00 7.465995e+00 6.586450e+03
