VARIABLES="x", "y", "z", "spec", "Speed", "vx", "vy", "vz"
ZONE T="Trajectory=0" F=POINT
2.378017e+03  -9.999966e+07  -7.369243e+03  0  1.004428e+03   9.762149e+02  6.912882e+01  2.260567e+02
-3.027257e+04  -9.994852e+07  3.443055e+04  0  7.888151e+04   -3.734550e+04  5.437864e+04  4.325008e+04
-1.721317e+05  -9.977534e+07  1.601127e+05  0  1.760334e+05   -1.040076e+05  1.169989e+05  8.050742e+04
-4.570390e+05  -9.949620e+07  3.319553e+05  0  2.693682e+05   -1.861989e+05  1.690502e+05  9.649467e+04
-9.064425e+05  -9.913571e+07  5.083422e+05  0  3.569228e+05   -2.770193e+05  2.063593e+05  8.983325e+04
-1.528052e+06  -9.872497e+07  6.472998e+05  0  4.369240e+05   -3.689171e+05  2.259766e+05  6.113325e+04
-2.315400e+06  -9.829897e+07  7.102101e+05  0  5.078251e+05   -4.543851e+05  2.263905e+05  1.295965e+04
-3.248692e+06  -9.789383e+07  6.652211e+05  0  5.683339e+05   -5.266389e+05  2.076374e+05  -5.041466e+04
-4.296829e+06  -9.754385e+07  4.899739e+05  0  6.174118e+05   -5.801871e+05  1.712916e+05  -1.234478e+05
-5.420291e+06  -9.727877e+07  1.733501e+05  0  6.542662e+05   -6.112500e+05  1.203313e+05  -1.998952e+05
-6.574753e+06  -9.712146e+07  -2.839068e+05  0  6.783960e+05   -6.180464e+05  5.889107e+04  -2.734440e+05
-7.714556e+06  -9.708598e+07  -8.698173e+05  0  6.893770e+05   -6.005760e+05  -8.010202e+03  -3.383562e+05
-8.796089e+06  -9.717646e+07  -1.562730e+06  0  6.869880e+05   -5.606483e+05  -7.492552e+04  -3.898873e+05
-9.780970e+06  -9.738685e+07  -2.333524e+06  0  6.712500e+05   -5.016871e+05  -1.364875e+05  -4.245678e+05
-1.063877e+07  -9.770160e+07  -3.148146e+06  0  6.424593e+05   -4.284562e+05  -1.878636e+05  -4.403254e+05
-1.134910e+07  -9.809710e+07  -3.970278e+06  0  6.011664e+05   -3.466566e+05  -2.251202e+05  -4.365217e+05
-1.190289e+07  -9.854370e+07  -4.763949e+06  0  5.481935e+05   -2.625355e+05  -2.455589e+05  -4.138744e+05
-1.230296e+07  -9.900829e+07  -5.495932e+06  0  4.846264e+05   -1.824593e+05  -2.478826e+05  -3.743336e+05
-1.256369e+07  -9.945694e+07  -6.137884e+06  0  4.117930e+05   -1.124328e+05  -2.322415e+05  -3.209303e+05
-1.270991e+07  -9.985751e+07  -6.668163e+06  0  3.312413e+05   -5.769517e+04  -2.001057e+05  -2.575845e+05
-1.277500e+07  -1.001820e+08  -7.073231e+06  0  2.447881e+05   -2.234317e+04  -1.541074e+05  -1.888728e+05
-1.279845e+07  -1.004082e+08  -7.348580e+06  0  1.548663e+05   -9.055421e+03  -9.777924e+04  -1.197531e+05
-1.282295e+07  -1.005216e+08  -7.499118e+06  0  6.825870e+04   -1.887985e+04  -3.533186e+04  -5.526717e+04
-1.289123e+07  -1.005158e+08  -7.538921e+06  0  5.860477e+04   -5.113624e+04  2.862820e+04  -1.728775e+02
-1.304284e+07  -1.003932e+08  -7.490282e+06  0  1.429031e+05   -1.034685e+05  8.943927e+04  4.142684e+04
-1.331120e+07  -1.001647e+08  -7.382100e+06  0  2.331747e+05   -1.720273e+05  1.427078e+05  6.641927e+04
-1.372116e+07  -9.984883e+07  -7.247723e+06  0  3.206372e+05   -2.517941e+05  1.846264e+05  7.294530e+04
-1.428733e+07  -9.947025e+07  -7.122410e+06  0  4.028459e+05   -3.370101e+05  2.122303e+05  6.055782e+04
-1.501305e+07  -9.905813e+07  -7.040582e+06  0  4.781284e+05   -4.215771e+05  2.235208e+05  3.029853e+04
-1.589037e+07  -9.864412e+07  -7.033127e+06  0  5.451127e+05   -4.995410e+05  2.176454e+05  -1.539903e+04
-1.690084e+07  -9.826009e+07  -7.125027e+06  0  6.026649e+05   -5.655707e+05  1.949765e+05  -7.293078e+04
-1.801707e+07  -9.793586e+07  -7.333549e+06  0  6.498271e+05   -6.152922e+05  1.570963e+05  -1.378823e+05
-1.920473e+07  -9.769695e+07  -7.667205e+06  0  6.857120e+05   -6.454446e+05  1.067390e+05  -2.054483e+05
-2.042488e+07  -9.756267e+07  -8.125456e+06  0  7.095840e+05   -6.541434e+05  4.761766e+04  -2.708109e+05
-2.163674e+07  -9.754455e+07  -8.699077e+06  0  7.209164e+05   -6.410179e+05  -1.585891e+04  -3.294920e+05
-2.280048e+07  -9.764542e+07  -9.371201e+06  0  7.193579e+05   -6.071088e+05  -7.895929e+04  -3.777036e+05
-2.387982e+07  -9.785935e+07  -1.011875e+07  0  7.048604e+05   -5.549329e+05  -1.370394e+05  -4.124291e+05
-2.484475e+07  -9.817216e+07  -1.091400e+07  0  6.777369e+05   -4.883444e+05  -1.859485e+05  -4.315902e+05
-2.567355e+07  -9.856285e+07  -1.172656e+07  0  6.385738e+05   -4.121057e+05  -2.223555e+05  -4.341698e+05
-2.635415e+07  -9.900520e+07  -1.252526e+07  0  5.882018e+05   -3.316029e+05  -2.438750e+05  -4.201736e+05
-2.688488e+07  -9.946982e+07  -1.328012e+07  0  5.277104e+05   -2.524537e+05  -2.493026e+05  -3.906323e+05
-2.727446e+07  -9.992637e+07  -1.396414e+07  0  4.583924e+05   -1.801458e+05  -2.385397e+05  -3.475196e+05
-2.754138e+07  -1.003455e+08  -1.455499e+07  0  3.817359e+05   -1.196505e+05  -2.125471e+05  -2.936491e+05
-2.771254e+07  -1.007006e+08  -1.503637e+07  0  2.995064e+05   -7.513063e+04  -1.731796e+05  -2.325259e+05
-2.782145e+07  -1.009697e+08  -1.539922e+07  0  2.143046e+05   -4.966775e+04  -1.231592e+05  -1.682005e+05
-2.790596e+07  -1.011366e+08  -1.564235e+07  0  1.318681e+05   -4.503703e+04  -6.588098e+04  -1.049789e+05
-2.800564e+07  -1.011919e+08  -1.577266e+07  0  7.772572e+04   -6.158985e+04  -5.181163e+03  -4.712891e+04
-2.815908e+07  -1.011338e+08  -1.580466e+07  0  1.125451e+05   -9.823324e+04  5.490552e+04  1.418321e+03
-2.840131e+07  -1.009679e+08  -1.575959e+07  0  1.919449e+05   -1.525100e+05  1.104001e+05  3.735498e+04
-2.876136e+07  -1.007069e+08  -1.566390e+07  0  2.774550e+05   -2.207748e+05  1.576296e+05  5.824664e+04
-2.926038e+07  -1.003700e+08  -1.554744e+07  0  3.611586e+05   -2.984538e+05  1.934605e+05  6.272087e+04
-2.991023e+07  -9.998124e+07  -1.544133e+07  0  4.400868e+05   -3.803643e+05  2.155032e+05  5.057410e+04
-3.071273e+07  -9.956824e+07  -1.537570e+07  0  5.123716e+05   -4.610713e+05  2.223017e+05  2.279960e+04
-3.165961e+07  -9.916014e+07  -1.537763e+07  0  5.765116e+05   -5.352363e+05  2.134098e+05  -1.854949e+04
-3.273304e+07  -9.878575e+07  -1.546931e+07  0  6.312259e+05   -5.979799e+05  1.894541e+05  -7.052208e+04
-3.390690e+07  -9.847148e+07  -1.566663e+07  0  6.753574e+05   -6.451245e+05  1.521463e+05  -1.295123e+05
-3.514820e+07  -9.823938e+07  -1.597828e+07  0  7.078983e+05   -6.734843e+05  1.042112e+05  -1.915174e+05
-3.641971e+07  -9.810557e+07  -1.640521e+07  0  7.282484e+05   -6.813591e+05  4.905738e+04  -2.523665e+05
-3.768258e+07  -9.807931e+07  -1.694071e+07  0  7.360898e+05   -6.684739e+05  -9.485158e+03  -3.080274e+05
-3.889905e+07  -9.816246e+07  -1.757090e+07  0  7.313759e+05   -6.359504e+05  -6.744134e+04  -3.548656e+05
-4.003487e+07  -9.834956e+07  -1.827582e+07  0  7.142920e+05   -5.861503e+05  -1.209400e+05  -3.898903e+05
-4.106150e+07  -9.862836e+07  -1.903079e+07  0  6.853361e+05   -5.225854e+05  -1.665786e+05  -4.109034e+05
-4.195798e+07  -9.898089e+07  -1.980799e+07  0  6.452042e+05   -4.495792e+05  -2.015388e+05  -4.165922e+05
-4.271202e+07  -9.938476e+07  -2.057822e+07  0  5.947863e+05   -3.719846e+05  -2.237482e+05  -4.066139e+05
-4.332070e+07  -9.981457e+07  -2.131275e+07  0  5.351256e+05   -2.948497e+05  -2.319595e+05  -3.815991e+05
-4.379047e+07  -1.002436e+08  -2.198508e+07  0  4.674273e+05   -2.231233e+05  -2.257983e+05  -3.431027e+05
-4.413668e+07  -1.006455e+08  -2.257256e+07  0  3.931718e+05   -1.613972e+05  -2.058450e+05  -2.935351e+05
-4.438249e+07  -1.009958e+08  -2.305788e+07  0  3.141036e+05   -1.135239e+05  -1.734594e+05  -2.359772e+05
-4.455724e+07  -1.012736e+08  -2.343003e+07  0  2.327028e+05   -8.244770e+04  -1.306947e+05  -1.739881e+05
-4.469465e+07  -1.014623e+08  -2.368499e+07  0  1.541152e+05   -7.006447e+04  -8.019254e+04  -1.114074e+05
-4.483068e+07  -1.015508e+08  -2.382603e+07  0  9.636673e+04   -7.709719e+04  -2.504960e+04  -5.210651e+04
-4.500125e+07  -1.015343e+08  -2.386342e+07  0  1.077170e+05   -1.030507e+05  3.135973e+04  2.701868e+02
-4.524004e+07  -1.014142e+08  -2.381377e+07  0  1.747065e+05   -1.462475e+05  8.559020e+04  4.252471e+04
-4.557637e+07  -1.011984e+08  -2.369899e+07  0  2.546315e+05   -2.039310e+05  1.343469e+05  7.211276e+04
-4.603332e+07  -1.009004e+08  -2.354484e+07  0  3.352142e+05   -2.724427e+05  1.747023e+05  8.730775e+04
-4.662639e+07  -1.005387e+08  -2.337927e+07  0  4.124164e+05   -3.474619e+05  2.042912e+05  8.730749e+04
-4.736251e+07  -1.001355e+08  -2.323067e+07  0  4.840397e+05   -4.242927e+05  2.214686e+05  7.226210e+04
-4.823969e+07  -9.971485e+07  -2.312611e+07  0  5.484752e+05   -4.981385e+05  2.254158e+05  4.325263e+04
-4.924714e+07  -9.930170e+07  -2.308963e+07  0  6.044269e+05   -5.644347e+05  2.161950e+05  2.241952e+03
-5.036622e+07  -9.891976e+07  -2.314073e+07  0  6.509104e+05   -6.192486e+05  1.946924e+05  -4.806568e+04
-5.157181e+07  -9.859033e+07  -2.329328e+07  0  6.871536e+05   -6.594358e+05  1.624953e+05  -1.044980e+05
-5.283401e+07  -9.833103e+07  -2.355483e+07  0  7.126909e+05   -6.829032e+05  1.217821e+05  -1.635259e+05
-5.412032e+07  -9.815497e+07  -2.392621e+07  0  7.273279e+05   -6.886720e+05  7.508652e+04  -2.215822e+05
-5.539756e+07  -9.807031e+07  -2.440172e+07  0  7.310894e+05   -6.768339e+05  2.514141e+04  -2.752372e+05
-5.663390e+07  -9.808003e+07  -2.496961e+07  0  7.242150e+05   -6.484885e+05  -2.530426e+04  -3.214183e+05
-5.780057e+07  -9.818208e+07  -2.561294e+07  0  7.071307e+05   -6.056108e+05  -7.362652e+04  -3.575590e+05
-5.887331e+07  -9.836975e+07  -2.631065e+07  0  6.803997e+05   -5.508720e+05  -1.174086e+05  -3.817053e+05
-5.983340e+07  -9.863204e+07  -2.703875e+07  0  6.446244e+05   -4.874236e+05  -1.544346e+05  -3.925669e+05
-6.066846e+07  -9.895411e+07  -2.777166e+07  0  6.004956e+05   -4.188112e+05  -1.827997e+05  -3.895850e+05
-6.137314e+07  -9.931804e+07  -2.848361e+07  0  5.488395e+05   -3.488493e+05  -2.010256e+05  -3.729848e+05
-6.194911e+07  -9.970366e+07  -2.915014e+07  0  4.905135e+05   -2.812964e+05  -2.081100e+05  -3.437528e+05
-6.240493e+07  -1.000895e+08  -2.974939e+07  0  4.264381e+05   -2.197047e+05  -2.035854e+05  -3.035330e+05
-6.275544e+07  -1.004541e+08  -3.026320e+07  0  3.577714e+05   -1.673162e+05  -1.876596e+05  -2.545379e+05
-6.302102e+07  -1.007768e+08  -3.067811e+07  0  2.861317e+05   -1.268921e+05  -1.612225e+05  -1.994419e+05
-6.322653e+07  -1.010397e+08  -3.098599e+07  0  2.141099e+05   -1.005301e+05  -1.256887e+05  -1.412058e+05
-6.339989e+07  -1.012277e+08  -3.118446e+07  0  1.476106e+05   -8.959351e+04  -8.296004e+04  -8.294288e+04
-6.357070e+07  -1.013300e+08  -3.127697e+07  0  1.047511e+05   -9.461133e+04  -3.536943e+04  -2.775792e+04
-6.376851e+07  -1.013404e+08  -3.127260e+07  0  1.180993e+05   -1.152351e+05  1.448564e+04  2.141230e+04
-6.402129e+07  -1.012575e+08  -3.118560e+07  0  1.746359e+05   -1.502469e+05  6.391317e+04  6.195715e+04
-6.435377e+07  -1.010853e+08  -3.103456e+07  0  2.442007e+05   -1.976212e+05  1.102883e+05  9.174054e+04
-6.478614e+07  -1.008322e+08  -3.084145e+07  0  3.156538e+05   -2.546421e+05  1.512088e+05  1.092276e+05
-6.533284e+07  -1.005106e+08  -3.063028e+07  0  3.849219e+05   -3.180745e+05  1.846342e+05  1.135945e+05
-6.600194e+07  -1.001365e+08  -3.042580e+07  0  4.498809e+05   -3.843694e+05  2.089911e+05  1.047648e+05
-6.679466e+07  -9.972812e+07  -3.025206e+07  0  5.090835e+05   -4.498557e+05  2.232555e+05  8.338351e+04
-6.770550e+07  -9.930482e+07  -3.013113e+07  0  5.614776e+05   -5.110272e+05  2.269927e+05  5.081898e+04
-6.872295e+07  -9.888627e+07  -3.008170e+07  0  6.063982e+05   -5.648871e+05  2.203146e+05  9.100090e+03
-6.983053e+07  -9.849134e+07  -3.011820e+07  0  6.434376e+05   -6.090348e+05  2.038223e+05  -3.930762e+04
-7.100808e+07  -9.813732e+07  -3.025011e+07  0  6.724216e+05   -6.417746e+05  1.785200e+05  -9.168902e+04
-7.223309e+07  -9.783924e+07  -3.048171e+07  0  6.933988e+05   -6.621697e+05  1.457279e+05  -1.452465e+05
-7.348213e+07  -9.760940e+07  -3.081217e+07  0  7.066152e+05   -6.700232e+05  1.069943e+05  -1.972973e+05
-7.473218e+07  -9.745699e+07  -3.123591e+07  0  7.124252e+05   -6.657424e+05  6.406457e+04  -2.454230e+05
-7.596121e+07  -9.738770e+07  -3.174327e+07  0  7.110323e+05   -6.499857e+05  1.886494e+04  -2.876275e+05
-7.714885e+07  -9.740358e+07  -3.232138e+07  0  7.026364e+05   -6.237559e+05  -2.663987e+04  -3.223613e+05
-7.827692e+07  -9.750301e+07  -3.295492e+07  0  6.874234e+05   -5.883358e+05  -7.049442e+04  -3.484858e+05
-7.932994e+07  -9.768061e+07  -3.362689e+07  0  6.655814e+05   -5.453044e+05  -1.106592e+05  -3.652345e+05
-8.029565e+07  -9.792743e+07  -3.431932e+07  0  6.373167e+05   -4.964311e+05  -1.453576e+05  -3.722901e+05
-8.116527e+07  -9.823160e+07  -3.501408e+07  0  6.028801e+05   -4.436379e+05  -1.731561e+05  -3.696846e+05
-8.193379e+07  -9.857884e+07  -3.569342e+07  0  5.626047e+05   -3.890331e+05  -1.928632e+05  -3.577444e+05
-8.260034e+07  -9.895299e+07  -3.634057e+07  0  5.169699e+05   -3.348680e+05  -2.036320e+05  -3.371280e+05
-8.316825e+07  -9.933682e+07  -3.694033e+07  0  4.665663e+05   -2.833623e+05  -2.050456e+05  -3.087819e+05
-8.364489e+07  -9.971273e+07  -3.747954e+07  0  4.121288e+05   -2.366357e+05  -1.970735e+05  -2.738900e+05
-8.404144e+07  -1.000636e+08  -3.794751e+07  0  3.547297e+05   -1.966576e+05  -1.801679e+05  -2.338771e+05
-8.437251e+07  -1.003736e+08  -3.833649e+07  0  2.959484e+05   -1.651814e+05  -1.550933e+05  -1.903854e+05
-8.465571e+07  -1.006285e+08  -3.864200e+07  0  2.384212e+05   -1.436632e+05  -1.229152e+05  -1.452495e+05
-8.491084e+07  -1.008166e+08  -3.886311e+07  0  1.871587e+05   -1.330952e+05  -8.507874e+04  -1.003775e+05
-8.515902e+07  -1.009293e+08  -3.900247e+07  0  1.521493e+05   -1.339772e+05  -4.325776e+04  -5.769140e+04
-8.542171e+07  -1.009610e+08  -3.906625e+07  0  1.475209e+05   -1.462862e+05  7.229609e+02  -1.903235e+04
-8.571975e+07  -1.009099e+08  -3.906389e+07  0  1.758938e+05   -1.694763e+05  4.496915e+04  1.393541e+04
-8.607240e+07  -1.007776e+08  -3.900763e+07  0  2.242103e+05   -2.025109e+05  8.760225e+04  3.981772e+04
-8.649648e+07  -1.005691e+08  -3.891197e+07  0  2.808993e+05   -2.439276e+05  1.268435e+05  5.757162e+04
-8.700569e+07  -1.002926e+08  -3.879287e+07  0  3.400052e+05   -2.919278e+05  1.610919e+05  6.656631e+04
-8.761010e+07  -9.995897e+07  -3.866699e+07  0  3.985334e+05   -3.444868e+05  1.889941e+05  6.662546e+04
-8.831586e+07  -9.958132e+07  -3.855069e+07  0  4.548124e+05   -3.994732e+05  2.095152e+05  5.812773e+04
-8.912512e+07  -9.917427e+07  -3.845916e+07  0  5.077918e+05   -4.547850e+05  2.219728e+05  4.184611e+04
-9.003626e+07  -9.875329e+07  -3.840576e+07  0  5.567634e+05   -5.084525e+05  2.260632e+05  1.889373e+04
-9.104419e+07  -9.833400e+07  -3.840142e+07  0  6.012324e+05   -5.587174e+05  2.218736e+05  -9.344298e+03
-9.214085e+07  -9.793142e+07  -3.845445e+07  0  6.408485e+05   -6.040983e+05  2.098423e+05  -4.145171e+04
-9.331572e+07  -9.755948e+07  -3.857054e+07  0  6.753720e+05   -6.434125e+05  1.906867e+05  -7.606794e+04
-9.455644e+07  -9.723040e+07  -3.875284e+07  0  7.046547e+05   -6.757805e+05  1.654011e+05  -1.118098e+05
-9.584931e+07  -9.695433e+07  -3.900200e+07  0  7.286098e+05   -7.006190e+05  1.351889e+05  -1.474081e+05
-9.717985e+07  -9.673896e+07  -3.931648e+07  0  7.471932e+05   -7.176178e+05  1.014307e+05  -1.817531e+05
-9.853337e+07  -9.658934e+07  -3.969295e+07  0  7.604548e+05   -7.267728e+05  6.551641e+04  -2.140102e+05
-9.989540e+07  -9.650800e+07  -4.012681e+07  0  7.684908e+05   -7.282980e+05  2.878955e+04  -2.435801e+05
-1.012521e+08  -9.649505e+07  -4.061257e+07  0  7.714251e+05   -7.225590e+05  -7.522164e+03  -2.700900e+05
-1.025903e+08  -9.654848e+07  -4.114432e+07  0  7.693861e+05   -7.099911e+05  -4.234075e+04  -2.933853e+05
-1.038978e+08  -9.666445e+07  -4.171590e+07  0  7.625213e+05   -6.911422e+05  -7.474132e+04  -3.133287e+05
-1.051637e+08  -9.683755e+07  -4.232089e+07  0  7.509673e+05   -6.666148e+05  -1.039783e+05  -3.297956e+05
-1.063779e+08  -9.706133e+07  -4.295264e+07  0  7.348165e+05   -6.369908e+05  -1.295885e+05  -3.426439e+05
-1.075316e+08  -9.732847e+07  -4.360416e+07  0  7.141683e+05   -6.029438e+05  -1.511064e+05  -3.516560e+05
-1.086174e+08  -9.763084e+07  -4.426796e+07  0  6.891418e+05   -5.652665e+05  -1.680894e+05  -3.565616e+05
-1.096295e+08  -9.795951e+07  -4.493604e+07  0  6.598754e+05   -5.248623e+05  -1.801661e+05  -3.570648e+05
-1.105640e+08  -9.830495e+07  -4.559988e+07  0  6.265664e+05   -4.827528e+05  -1.870271e+05  -3.529250e+05
-1.114191e+08  -9.865704e+07  -4.625071e+07  0  5.896001e+05   -4.401757e+05  -1.883243e+05  -3.441041e+05
-1.121952e+08  -9.900512e+07  -4.687992e+07  0  5.494928e+05   -3.984256e+05  -1.838849e+05  -3.307351e+05
-1.128954e+08  -9.933852e+07  -4.747924e+07  0  5.068548e+05   -3.587426e+05  -1.737899e+05  -3.130537e+05
-1.135249e+08  -9.964690e+07  -4.804099e+07  0  4.624863e+05   -3.223640e+05  -1.582525e+05  -2.914295e+05
-1.140913e+08  -9.992047e+07  -4.855842e+07  0  4.175186e+05   -2.905028e+05  -1.376520e+05  -2.664242e+05
-1.146042e+08  -1.001503e+08  -4.902594e+07  0  3.734357e+05   -2.642162e+05  -1.125079e+05  -2.387173e+05
-1.150751e+08  -1.003287e+08  -4.943940e+07  0  3.323195e+05   -2.444064e+05  -8.347856e+04  -2.091247e+05
-1.155169e+08  -1.004492e+08  -4.979626e+07  0  2.970384e+05   -2.317701e+05  -5.136641e+04  -1.785383e+05
-1.159435e+08  -1.005070e+08  -5.009570e+07  0  2.712635e+05   -2.267685e+05  -1.709133e+04  -1.478777e+05
-1.163696e+08  -1.004993e+08  -5.033861e+07  0  2.588383e+05   -2.296110e+05  1.834662e+04  -1.180654e+05
-1.168098e+08  -1.004250e+08  -5.052758e+07  0  2.621457e+05   -2.402459e+05  5.390011e+04  -8.998375e+04
-1.172784e+08  -1.002852e+08  -5.066676e+07  0  2.806015e+05   -2.583629e+05  8.851227e+04  -6.443128e+04
-1.177887e+08  -1.000827e+08  -5.076166e+07  0  3.110791e+05   -2.834084e+05  1.211554e+05  -4.208636e+04
-1.183529e+08  -9.982224e+07  -5.081891e+07  0  3.496833e+05   -3.145982e+05  1.508474e+05  -2.348214e+04
-1.189813e+08  -9.951046e+07  -5.084590e+07  0  3.930485e+05   -3.509648e+05  1.767219e+05  -8.955574e+03
-1.196826e+08  -9.915528e+07  -5.085045e+07  0  4.386792e+05   -3.914160e+05  1.980685e+05  1.344889e+03
-1.204629e+08  -9.876580e+07  -5.084047e+07  0  4.848069e+05   -4.347834e+05  2.143496e+05  7.446393e+03
-1.213265e+08  -9.835191e+07  -5.082363e+07  0  5.301819e+05   -4.798745e+05  2.252166e+05  9.531229e+03
-1.222751e+08  -9.792394e+07  -5.080706e+07  0  5.738732e+05   -5.254933e+05  2.304859e+05  7.966360e+03
-1.233085e+08  -9.749248e+07  -5.079689e+07  0  6.151205e+05   -5.704482e+05  2.301100e+05  3.384216e+03
-1.244243e+08  -9.706785e+07  -5.079819e+07  0  6.534678e+05   -6.137484e+05  2.243196e+05  -3.713497e+03
-1.256183e+08  -9.665973e+07  -5.081513e+07  0  6.886159e+05   -6.545497e+05  2.135207e+05  -1.286443e+04
-1.268852e+08  -9.627691e+07  -5.085107e+07  0  7.203882e+05   -6.921658e+05  1.982583e+05  -2.364846e+04
-1.282183e+08  -9.592704e+07  -5.090868e+07  0  7.486924e+05   -7.260611e+05  1.791613e+05  -3.573262e+04
-1.296102e+08  -9.561652e+07  -5.099010e+07  0  7.735033e+05   -7.558425e+05  1.569111e+05  -4.887130e+04
-1.310530e+08  -9.535048e+07  -5.109717e+07  0  7.948443e+05   -7.812423e+05  1.321914e+05  -6.295607e+04
-1.325381e+08  -9.513277e+07  -5.123155e+07  0  8.127711e+05   -8.020953e+05  1.057030e+05  -7.789029e+04
-1.340571e+08  -9.496592e+07  -5.139474e+07  0  8.273580e+05   -8.183248e+05  7.812516e+04  -9.360741e+04
-1.356012e+08  -9.485125e+07  -5.158817e+07  0  8.386917e+05   -8.299261e+05  5.008499e+04  -1.100813e+05
-1.371619e+08  -9.478900e+07  -5.181329e+07  0  8.468641e+05   -8.369443e+05  2.213411e+04  -1.273308e+05
-1.387306e+08  -9.477840e+07  -5.207147e+07  0  8.519439e+05   -8.394493e+05  -5.200175e+03  -1.452795e+05
-1.402991e+08  -9.481777e+07  -5.236388e+07  0  8.539855e+05   -8.375388e+05  -3.144667e+04  -1.638022e+05
-1.418591e+08  -9.490463e+07  -5.269145e+07  0  8.530386e+05   -8.313303e+05  -5.622269e+04  -1.827674e+05
-1.434028e+08  -9.503585e+07  -5.305479e+07  0  8.491300e+05   -8.209497e+05  -7.919469e+04  -2.019691e+05
-1.449225e+08  -9.520770e+07  -5.345401e+07  0  8.422611e+05   -8.065419e+05  -1.000541e+05  -2.210952e+05
-1.464110e+08  -9.541590e+07  -5.388854e+07  0  8.324499e+05   -7.883172e+05  -1.184951e+05  -2.397659e+05
-1.478614e+08  -9.565566e+07  -5.435713e+07  0  8.197236e+05   -7.665120e+05  -1.343142e+05  -2.576157e+05
-1.492672e+08  -9.592190e+07  -5.485778e+07  0  8.040879e+05   -7.413856e+05  -1.473410e+05  -2.742179e+05
-1.506226e+08  -9.620922e+07  -5.538762e+07  0  7.855538e+05   -7.132500e+05  -1.574235e+05  -2.891144e+05
-1.519224e+08  -9.651194e+07  -5.594298e+07  0  7.641967e+05   -6.825311e+05  -1.643983e+05  -3.018625e+05
-1.531623e+08  -9.682412e+07  -5.651938e+07  0  7.401215e+05   -6.496943e+05  -1.681843e+05  -3.120755e+05
-1.543389e+08  -9.713975e+07  -5.711168e+07  0  7.134402e+05   -6.152475e+05  -1.687184e+05  -3.193767e+05
-1.554498e+08  -9.745268e+07  -5.771403e+07  0  6.843099e+05   -5.797679e+05  -1.659518e+05  -3.234335e+05
-1.564938e+08  -9.775670e+07  -5.832008e+07  0  6.529539e+05   -5.438979e+05  -1.598637e+05  -3.239869e+05
-1.574710e+08  -9.804563e+07  -5.892305e+07  0  6.196799e+05   -5.083353e+05  -1.504714e+05  -3.208687e+05
-1.583828e+08  -9.831335e+07  -5.951602e+07  0  5.849164e+05   -4.738254e+05  -1.378438e+05  -3.140315e+05
-1.592319e+08  -9.855388e+07  -6.009213e+07  0  5.492634e+05   -4.411641e+05  -1.220481e+05  -3.035932e+05
-1.600228e+08  -9.876148e+07  -6.064485e+07  0  5.134350e+05   -4.111077e+05  -1.032606e+05  -2.897295e+05
-1.607611e+08  -9.893084e+07  -6.116803e+07  0  4.783275e+05   -3.843823e+05  -8.174307e+04  -2.727005e+05
-1.614539e+08  -9.905720e+07  -6.165622e+07  0  4.451306e+05   -3.616988e+05  -5.781218e+04  -2.529287e+05
-1.621093e+08  -9.913650e+07  -6.210477e+07  0  4.151781e+05   -3.436138e+05  -3.190049e+04  -2.308349e+05
-1.627365e+08  -9.916560e+07  -6.250985e+07  0  3.900050e+05   -3.305752e+05  -4.501693e+03  -2.068906e+05
-1.633453e+08  -9.914231e+07  -6.286857e+07  0  3.712508e+05   -3.229154e+05  2.383926e+04  -1.816164e+05
-1.639461e+08  -9.906553e+07  -6.317906e+07  0  3.604121e+05   -3.208382e+05  5.254265e+04  -1.555603e+05
-1.645493e+08  -9.893524e+07  -6.344049e+07  0  3.584919e+05   -3.244106e+05  8.100985e+04  -1.292734e+05
-1.651654e+08  -9.875257e+07  -6.365302e+07  0  3.656962e+05   -3.335600e+05  1.086348e+05  -1.032952e+05
-1.658047e+08  -9.851976e+07  -6.381781e+07  0  3.813655e+05   -3.480774e+05  1.348205e+05  -7.813593e+04
-1.664769e+08  -9.824015e+07  -6.393692e+07  0  4.041925e+05   -3.676238e+05  1.589968e+05  -5.426107e+04
-1.671909e+08  -9.791812e+07  -6.401323e+07  0  4.325471e+05   -3.917257e+05  1.806080e+05  -3.207393e+04
-1.679544e+08  -9.755906e+07  -6.405025e+07  0  4.647815e+05   -4.197898e+05  1.991405e+05  -1.189319e+04
-1.687742e+08  -9.716920e+07  -6.405202e+07  0  4.994559e+05   -4.511575e+05  2.141883e+05  6.037015e+03
-1.696558e+08  -9.675542e+07  -6.402297e+07  0  5.353699e+05   -4.851168e+05  2.254309e+05  2.153037e+04
-1.706030e+08  -9.632510e+07  -6.396778e+07  0  5.715525e+05   -5.209191e+05  2.326515e+05  3.447940e+04
-1.716185e+08  -9.588592e+07  -6.389129e+07  0  6.072333e+05   -5.578086e+05  2.357370e+05  4.483216e+04
-1.727035e+08  -9.544562e+07  -6.379836e+07  0  6.418061e+05   -5.950428e+05  2.346785e+05  5.258499e+04
-1.738578e+08  -9.501186e+07  -6.369381e+07  0  6.747987e+05   -6.319119e+05  2.295704e+05  5.777556e+04
-1.750800e+08  -9.459203e+07  -6.358238e+07  0  7.058517e+05   -6.677628e+05  2.206009e+05  6.045482e+04
-1.763676e+08  -9.419304e+07  -6.346871e+07  0  7.346983e+05   -7.020103e+05  2.080432e+05  6.067267e+04
-1.777169e+08  -9.382123e+07  -6.335733e+07  0  7.611387e+05   -7.341329e+05  1.922476e+05  5.849728e+04
-1.791234e+08  -9.348219e+07  -6.325263e+07  0  7.850329e+05   -7.636840e+05  1.736282e+05  5.400646e+04
-1.805820e+08  -9.318070e+07  -6.315885e+07  0  8.062930e+05   -7.902992e+05  1.526464e+05  4.727253e+04
-1.820867e+08  -9.292063e+07  -6.308014e+07  0  8.248789e+05   -8.137006e+05  1.297923e+05  3.834801e+04
-1.836314e+08  -9.270490e+07  -6.302049e+07  0  8.407717e+05   -8.336691e+05  1.055785e+05  2.731511e+04
-1.852095e+08  -9.253547e+07  -6.298375e+07  0  8.539731e+05   -8.500484e+05  8.052287e+04  1.427559e+04
-1.868140e+08  -9.241336e+07  -6.297352e+07  0  8.645044e+05   -8.627445e+05  5.513004e+04  -6.533250e+02
-1.884382e+08  -9.233864e+07  -6.299324e+07  0  8.724128e+05   -8.717278e+05  2.988849e+04  -1.735903e+04
-1.900749e+08  -9.231050e+07  -6.304603e+07  0  8.777394e+05   -8.769983e+05  5.260334e+03  -3.567413e+04
-1.917174e+08  -9.232732e+07  -6.313468e+07  0  8.805251e+05   -8.785898e+05  -1.833659e+04  -5.539134e+04
-1.933588e+08  -9.238677e+07  -6.326155e+07  0  8.808134e+05   -8.765673e+05  -4.054696e+04  -7.627539e+04
-1.949925e+08  -9.248589e+07  -6.342851e+07  0  8.786335e+05   -8.710099e+05  -6.105711e+04  -9.803333e+04
-1.966118e+08  -9.262120e+07  -6.363681e+07  0  8.740065e+05   -8.620160e+05  -7.960262e+04  -1.203290e+05
-1.982106e+08  -9.278878e+07  -6.388707e+07  0  8.669566e+05   -8.497116e+05  -9.597357e+04  -1.428041e+05
-1.997829e+08  -9.298437e+07  -6.417920e+07  0  8.575133e+05   -8.342521e+05  -1.099978e+05  -1.650846e+05
-2.013228e+08  -9.320343e+07  -6.451239e+07  0  8.456960e+05   -8.158106e+05  -1.215471e+05  -1.867647e+05
-2.028251e+08  -9.344121e+07  -6.488504e+07  0  8.315278e+05   -7.945893e+05  -1.305352e+05  -2.074293e+05
-2.042848e+08  -9.369290e+07  -6.529481e+07  0  8.150427e+05   -7.708224e+05  -1.369261e+05  -2.266683e+05
-2.056975e+08  -9.395361e+07  -6.573856e+07  0  7.962850e+05   -7.447810e+05  -1.406992e+05  -2.440797e+05
-2.070592e+08  -9.421842e+07  -6.621245e+07  0  7.753178e+05   -7.167773e+05  -1.418509e+05  -2.592802e+05
-2.083668e+08  -9.448246e+07  -6.671195e+07  0  7.522431e+05   -6.871822e+05  -1.403848e+05  -2.719235e+05
-2.096176e+08  -9.474077e+07  -6.723197e+07  0  7.272916e+05   -6.565062e+05  -1.362529e+05  -2.817585e+05
-2.108104e+08  -9.498840e+07  -6.776701e+07  0  7.006716e+05   -6.252205e+05  -1.295044e+05  -2.885629e+05
-2.119444e+08  -9.522056e+07  -6.831121e+07  0  6.726174e+05   -5.938039e+05  -1.202289e+05  -2.921577e+05
-2.130200e+08  -9.543264e+07  -6.885841e+07  0  6.434409e+05   -5.627770e+05  -1.085263e+05  -2.924386e+05
-2.140385e+08  -9.562022e+07  -6.940239e+07  0  6.135330e+05   -5.326810e+05  -9.452481e+04  -2.893764e+05
-2.150023e+08  -9.577922e+07  -6.993691e+07  0  5.833359e+05   -5.040306e+05  -7.841410e+04  -2.829932e+05
-2.159147e+08  -9.590593e+07  -7.045584e+07  0  5.533789e+05   -4.773312e+05  -6.040020e+04  -2.733769e+05
-2.167798e+08  -9.599703e+07  -7.095331e+07  0  5.242939e+05   -4.530686e+05  -4.071692e+04  -2.606819e+05
-2.176026e+08  -9.604970e+07  -7.142378e+07  0  4.968224e+05   -4.316965e+05  -1.962774e+04  -2.451233e+05
-2.183892e+08  -9.606164e+07  -7.186221e+07  0  4.718147e+05   -4.136250e+05  2.574806e+03  -2.269732e+05
-2.191460e+08  -9.603111e+07  -7.226410e+07  0  4.502101e+05   -3.992103e+05  2.557107e+04  -2.065584e+05
-2.198803e+08  -9.595703e+07  -7.262564e+07  0  4.329901e+05   -3.887473e+05  4.901040e+04  -1.842659e+05
-2.205996e+08  -9.583897e+07  -7.294376e+07  0  4.210412e+05   -3.824382e+05  7.251843e+04  -1.604922e+05
-2.213119e+08  -9.567724e+07  -7.321617e+07  0  4.150539e+05   -3.804037e+05  9.571446e+04  -1.356520e+05
-2.220252e+08  -9.547286e+07  -7.344133e+07  0  4.153989e+05   -3.826799e+05  1.182140e+05  -1.101717e+05
-2.227476e+08  -9.522755e+07  -7.361855e+07  0  4.220483e+05   -3.892170e+05  1.396362e+05  -8.447837e+04
-2.234869e+08  -9.494375e+07  -7.374787e+07  0  4.345806e+05   -3.998803e+05  1.596126e+05  -5.899006e+04
-2.242505e+08  -9.462454e+07  -7.383016e+07  0  4.522682e+05   -4.144543e+05  1.777945e+05  -3.410589e+04
-2.250455e+08  -9.427367e+07  -7.386694e+07  0  4.742062e+05   -4.326490e+05  1.938618e+05  -1.019888e+04
-2.258783e+08  -9.389539e+07  -7.386045e+07  0  4.994451e+05   -4.541176e+05  2.075315e+05  1.238126e+04
-2.267545e+08  -9.349448e+07  -7.381353e+07  0  5.270628e+05   -4.784505e+05  2.185621e+05  3.333016e+04
-2.276790e+08  -9.307609e+07  -7.372951e+07  0  5.562196e+05   -5.051888e+05  2.267595e+05  5.238907e+04
-2.286557e+08  -9.264570e+07  -7.361218e+07  0  5.861830e+05   -5.338407e+05  2.319831e+05  6.934298e+04
-2.296876e+08  -9.220897e+07  -7.346566e+07  0  6.162995e+05   -5.638713e+05  2.341189e+05  8.403939e+04
-2.307767e+08  -9.177181e+07  -7.329428e+07  0  6.460011e+05   -5.947226e+05  2.330942e+05  9.638242e+04
-2.319239e+08  -9.134007e+07  -7.310255e+07  0  6.748604e+05   -6.258786e+05  2.289477e+05  1.062805e+05
-2.331292e+08  -9.091949e+07  -7.289511e+07  0  7.025313e+05   -6.568419e+05  2.217826e+05  1.136724e+05
-2.343917e+08  -9.051555e+07  -7.267669e+07  0  7.287355e+05   -6.871425e+05  2.117603e+05  1.185245e+05
-2.357098e+08  -9.013335e+07  -7.245207e+07  0  7.532489e+05   -7.163428e+05  1.990923e+05  1.208267e+05
-2.370808e+08  -8.977756e+07  -7.222599e+07  0  7.759054e+05   -7.440534e+05  1.840464e+05  1.205845e+05
-2.385017e+08  -8.945228e+07  -7.200320e+07  0  7.965857e+05   -7.699363e+05  1.669321e+05  1.178156e+05
-2.399686e+08  -8.916101e+07  -7.178838e+07  0  8.151861e+05   -7.936791e+05  1.480795e+05  1.125804e+05
-2.414772e+08  -8.890659e+07  -7.158604e+07  0  8.316418e+05   -8.150257e+05  1.278535e+05  1.049512e+05
-2.430229e+08  -8.869116e+07  -7.140058e+07  0  8.459253e+05   -8.337810e+05  1.066440e+05  9.500448e+04
-2.446007e+08  -8.851612e+07  -7.123624e+07  0  8.580304e+05   -8.497977e+05  8.484389e+04  8.283457e+04
-2.462051e+08  -8.838213e+07  -7.109703e+07  0  8.679592e+05   -8.629612e+05  6.284516e+04  6.856863e+04
-2.478310e+08  -8.828913e+07  -7.098670e+07  0  8.757240e+05   -8.731939e+05  4.102764e+04  5.236087e+04
-2.494726e+08  -8.823638e+07  -7.090869e+07  0  8.813455e+05   -8.804529e+05  1.975284e+04  3.438669e+04
-2.511245e+08  -8.822249e+07  -7.086608e+07  0  8.848470e+05   -8.847221e+05  -6.476606e+02  1.485611e+04
-2.527809e+08  -8.824547e+07  -7.086151e+07  0  8.862524e+05   -8.860093e+05  -1.987705e+04  -5.987504e+03