VARIABLES="x", "y", "z", "spec", "Speed", "vx", "vy", "vz"
ZONE T="Trajectory=0" F=POINT
2.378017e+03  -9.999966e+07  -7.369243e+03  0  1.004428e+03   9.762149e+02  6.912882e+01  2.260567e+02
-9.985309e+04  -9.985844e+07  1.020668e+05  0  1.375154e+05   -7.512997e+04  9.295085e+04  6.801561e+04
-5.333088e+05  -9.942969e+07  3.682309e+05  0  2.874013e+05   -2.039093e+05  1.778051e+05  9.698381e+04
-1.390063e+06  -9.880949e+07  6.244336e+05  0  4.216057e+05   -3.508179e+05  2.235630e+05  6.853999e+04
-2.672720e+06  -9.813242e+07  7.066511e+05  0  5.333383e+05   -4.852129e+05  2.211343e+05  -1.085370e+04
-4.296829e+06  -9.754385e+07  4.899739e+05  0  6.174118e+05   -5.801871e+05  1.712916e+05  -1.234478e+05
-6.112180e+06  -9.717034e+07  -8.465783e+04  0  6.703021e+05   -6.182815e+05  8.441855e+04  -2.447576e+05
-7.936846e+06  -9.709405e+07  -1.000679e+06  0  6.899720e+05   -5.942996e+05  -2.156786e+04  -3.498630e+05
-9.593320e+06  -9.733579e+07  -2.174720e+06  0  6.754553e+05   -5.147897e+05  -1.248466e+05  -4.191000e+05
-1.094137e+07  -9.785166e+07  -3.478147e+06  0  6.274028e+05   -3.964229e+05  -2.046422e+05  -4.411402e+05
-1.190289e+07  -9.854370e+07  -4.763949e+06  0  5.481935e+05   -2.625355e+05  -2.455589e+05  -4.138744e+05
-1.247475e+07  -9.928152e+07  -5.893460e+06  0  4.419442e+05   -1.388802e+05  -2.405877e+05  -3.437216e+05
-1.272823e+07  -9.992930e+07  -6.759472e+06  0  3.143581e+05   -4.896650e+04  -1.919128e+05  -2.441164e+05
-1.279506e+07  -1.003716e+08  -7.303788e+06  0  1.729539e+05   -9.872699e+03  -1.096772e+05  -1.333660e+05
-1.284269e+07  -1.005336e+08  -7.527249e+06  0  4.427147e+04   -2.918630e+04  -9.666014e+03  -3.185421e+04
-1.304284e+07  -1.003932e+08  -7.490282e+06  0  1.429031e+05   -1.034685e+05  8.943927e+04  4.142684e+04
-1.353901e+07  -9.998421e+07  -7.302372e+06  0  2.861736e+05   -2.188979e+05  1.694296e+05  7.261300e+04
-1.441980e+07  -9.938952e+07  -7.101510e+06  0  4.185037e+05   -3.541710e+05  2.158380e+05  5.587680e+04
-1.570352e+07  -9.872553e+07  -7.027367e+06  0  5.324385e+05   -4.847460e+05  2.201936e+05  -5.182776e+03
-1.733643e+07  -9.812168e+07  -7.193762e+06  0  6.228283e+05   -5.876267e+05  1.815210e+05  -9.828596e+04
-1.920473e+07  -9.769695e+07  -7.667205e+06  0  6.857120e+05   -6.454446e+05  1.067390e+05  -2.054483e+05
-2.115559e+07  -9.753748e+07  -8.456709e+06  0  7.179125e+05   -6.488476e+05  9.754388e+03  -3.070831e+05
-2.302417e+07  -9.767951e+07  -9.515509e+06  0  7.174875e+05   -5.980273e+05  -9.111915e+04  -3.858094e+05
-2.466209e+07  -9.810261e+07  -1.075257e+07  0  6.841469e+05   -5.025978e+05  -1.770720e+05  -4.290664e+05
-2.596391e+07  -9.873519e+07  -1.204943e+07  0  6.197148e+05   -3.801024e+05  -2.328452e+05  -4.305249e+05
-2.688488e+07  -9.946982e+07  -1.328012e+07  0  5.277104e+05   -2.524537e+05  -2.493026e+05  -3.906323e+05
-2.744778e+07  -1.001841e+08  -1.433102e+07  0  4.131759e+05   -1.421438e+05  -2.246720e+05  -3.162783e+05
-2.773814e+07  -1.007619e+08  -1.511858e+07  0  2.825942e+05   -6.843686e+04  -1.639273e+05  -2.197811e+05
-2.788912e+07  -1.011120e+08  -1.560309e+07  0  1.475385e+05   -4.425877e+04  -7.773757e+04  -1.173271e+05
-2.805849e+07  -1.011821e+08  -1.579621e+07  0  8.081601e+04   -7.394485e+04  1.915390e+04  -2.639157e+04
-2.840131e+07  -1.009679e+08  -1.575959e+07  0  1.919449e+05   -1.525100e+05  1.104001e+05  3.735498e+04
-2.904312e+07  -1.005124e+08  -1.559453e+07  0  3.281226e+05   -2.665746e+05  1.806678e+05  6.294110e+04
-3.005864e+07  -9.989966e+07  -1.542404e+07  0  4.551267e+05   -3.967765e+05  2.181115e+05  4.621787e+04
-3.145941e+07  -9.923996e+07  -1.537069e+07  0  5.643996e+05   -5.211703e+05  2.164290e+05  -9.323998e+03
-3.319225e+07  -9.865148e+07  -1.553490e+07  0  6.502184e+05   -6.189248e+05  1.759987e+05  -9.349136e+04
-3.514820e+07  -9.823938e+07  -1.597828e+07  0  7.078983e+05   -6.734843e+05  1.042112e+05  -1.915174e+05
-3.718094e+07  -9.807662e+07  -1.671422e+07  0  7.344628e+05   -6.760772e+05  1.408439e+04  -2.866303e+05
-3.913367e+07  -9.819187e+07  -1.770664e+07  0  7.289372e+05   -6.272753e+05  -7.861526e+04  -3.628979e+05
-4.086604e+07  -9.856605e+07  -1.887710e+07  0  6.920459e+05   -5.362010e+05  -1.582244e+05  -4.078984e+05
-4.227706e+07  -9.913765e+07  -2.011855e+07  0  6.262152e+05   -4.188094e+05  -2.120408e+05  -4.144669e+05
-4.332070e+07  -9.981457e+07  -2.131275e+07  0  5.351256e+05   -2.948497e+05  -2.319595e+05  -3.815991e+05
-4.401170e+07  -1.004896e+08  -2.234899e+07  0  4.235584e+05   -1.846223e+05  -2.154110e+05  -3.145066e+05
-4.442209e+07  -1.010578e+08  -2.314160e+07  0  2.979066e+05   -1.058884e+05  -1.656602e+05  -2.238140e+05
-4.466845e+07  -1.014323e+08  -2.364332e+07  0  1.691190e+05   -7.099335e+04  -9.076854e+04  -1.237831e+05
-4.489280e+07  -1.015569e+08  -2.385262e+07  0  9.047678e+04   -8.527630e+04  -2.444126e+03  -3.013345e+04
-4.524004e+07  -1.014142e+08  -2.381377e+07  0  1.747065e+05   -1.462475e+05  8.559020e+04  4.252471e+04
-4.583489e+07  -1.010284e+08  -2.360946e+07  0  3.032272e+05   -2.440035e+05  1.597344e+05  8.302977e+04
-4.676211e+07  -1.004607e+08  -2.334729e+07  0  4.272439e+05   -3.628365e+05  2.087582e+05  8.548098e+04
-4.805337e+07  -9.979916e+07  -2.314229e+07  0  5.362309e+05   -4.838354e+05  2.256942e+05  5.008980e+04
-4.968265e+07  -9.914392e+07  -2.309865e+07  0  6.242043e+05   -5.879338e+05  2.089931e+05  -1.693491e+04
-5.157181e+07  -9.859033e+07  -2.329328e+07  0  6.871536e+05   -6.594358e+05  1.624953e+05  -1.044980e+05
-5.360503e+07  -9.821477e+07  -2.376470e+07  0  7.227850e+05   -6.885067e+05  9.430997e+04  -1.987014e+05
-5.564907e+07  -9.806470e+07  -2.450838e+07  0  7.305546e+05   -6.724345e+05  1.500633e+04  -2.851609e+05
-5.757405e+07  -9.815454e+07  -2.547920e+07  0  7.113381e+05   -6.152285e+05  -6.425071e+04  -3.512372e+05
-5.927170e+07  -9.846647e+07  -2.659966e+07  0  6.671400e+05   -5.263485e+05  -1.331452e+05  -3.876923e+05
-6.066846e+07  -9.895411e+07  -2.777166e+07  0  6.004956e+05   -4.188112e+05  -1.827997e+05  -3.895850e+05
-6.173377e+07  -9.954816e+07  -2.889045e+07  0  5.145876e+05   -3.077958e+05  -2.066544e+05  -3.568698e+05
-6.248288e+07  -1.001648e+08  -2.985949e+07  0  4.130266e+05   -2.083931e+05  -2.012909e+05  -2.943556e+05
-6.297356e+07  -1.007165e+08  -3.060351e+07  0  3.005973e+05   -1.339091e+05  -1.672907e+05  -2.108102e+05
-6.329809e+07  -1.011246e+08  -3.107845e+07  0  1.862762e+05   -9.425534e+04  -1.093382e+05  -1.177281e+05
-6.357070e+07  -1.013300e+08  -3.127697e+07  0  1.047511e+05   -9.461133e+04  -3.536943e+04  -2.775792e+04
-6.391191e+07  -1.013017e+08  -3.122921e+07  0  1.493144e+05   -1.346282e+05  4.436483e+04  4.692320e+04
-6.443171e+07  -1.010408e+08  -3.099856e+07  0  2.585192e+05   -2.083509e+05  1.189801e+05  9.625900e+04
-6.521387e+07  -1.005797e+08  -3.067277e+07  0  3.713588e+05   -3.050427e+05  1.786316e+05  1.137850e+05
-6.630435e+07  -9.997622e+07  -3.035132e+07  0  4.743237e+05   -4.108689e+05  2.159451e+05  9.765979e+04
-6.770550e+07  -9.930482e+07  -3.013113e+07  0  5.614776e+05   -5.110272e+05  2.269927e+05  5.081898e+04
-6.937791e+07  -9.864533e+07  -3.009257e+07  0  6.295836e+05   -5.926661e+05  2.115407e+05  -1.931227e+04
-7.125003e+07  -9.807279e+07  -3.028841e+07  0  6.772530e+05   -6.468585e+05  1.725140e+05  -1.023947e+05
-7.323152e+07  -9.764942e+07  -3.073838e+07  0  7.045714e+05   -6.694377e+05  1.151358e+05  -1.871304e+05
-7.522750e+07  -9.741910e+07  -3.142948e+07  0  7.127209e+05   -6.607675e+05  4.614754e+04  -2.631115e+05
-7.714885e+07  -9.740358e+07  -3.232138e+07  0  7.026364e+05   -6.237559e+05  -2.663987e+04  -3.223613e+05
-7.891859e+07  -9.760069e+07  -3.335463e+07  0  6.751010e+05   -5.633198e+05  -9.515999e+04  -3.596898e+05
-8.047748e+07  -9.798410e+07  -3.445866e+07  0  6.309141e+05   -4.861217e+05  -1.515105e+05  -3.725357e+05
-8.178827e+07  -9.850670e+07  -3.555961e+07  0  5.711053e+05   -3.999904e+05  -1.896173e+05  -3.608521e+05
-8.283902e+07  -9.910635e+07  -3.658695e+07  0  4.973462e+05   -3.138251e+05  -2.053356e+05  -3.266563e+05
-8.364489e+07  -9.971273e+07  -3.747954e+07  0  4.121288e+05   -2.366357e+05  -1.970735e+05  -2.738900e+05
-8.424687e+07  -1.002555e+08  -3.819074e+07  0  3.194919e+05   -1.766483e+05  -1.660463e+05  -2.080843e+05
-8.470832e+07  -1.006718e+08  -3.869294e+07  0  2.274396e+05   -1.406502e+05  -1.157498e+05  -1.361921e+05
-8.510890e+07  -1.009131e+08  -3.898089e+07  0  1.571519e+05   -1.328783e+05  -5.185466e+04  -6.596345e+04
-8.553556e+07  -1.009505e+08  -3.907261e+07  0  1.554916e+05   -1.543041e+05  1.849605e+04  -5.077219e+03
-8.607240e+07  -1.007776e+08  -3.900763e+07  0  2.242103e+05   -2.025109e+05  8.760225e+04  3.981772e+04
-8.679106e+07  -1.004107e+08  -3.884226e+07  0  3.163051e+05   -2.720635e+05  1.480846e+05  6.404154e+04
-8.774302e+07  -9.988651e+07  -3.864245e+07  0  4.100091e+05   -3.553583e+05  1.937159e+05  6.559039e+04
-8.895501e+07  -9.925729e+07  -3.847481e+07  0  4.974976e+05   -4.437938e+05  2.201465e+05  4.567682e+04
-9.042821e+07  -9.858451e+07  -3.839761e+07  0  5.751138e+05   -5.290564e+05  2.253635e+05  8.152822e+03
-9.214085e+07  -9.793142e+07  -3.845445e+07  0  6.408485e+05   -6.040983e+05  2.098423e+05  -4.145171e+04
-9.405310e+07  -9.735618e+07  -3.867188e+07  0  6.935770e+05   -6.637103e+05  1.761784e+05  -9.746207e+04
-9.611287e+07  -9.690620e+07  -3.905976e+07  0  7.327555e+05   -7.046498e+05  1.286762e+05  -1.544077e+05
-9.826153e+07  -9.661385e+07  -3.961290e+07  0  7.582241e+05   -7.255617e+05  7.280614e+04  -2.077577e+05
-1.004395e+08  -9.649468e+07  -4.031521e+07  0  7.702695e+05   -7.268516e+05  1.415400e+04  -2.545614e+05
-1.025903e+08  -9.654848e+07  -4.114432e+07  0  7.693861e+05   -7.099911e+05  -4.234075e+04  -2.933853e+05
-1.046630e+08  -9.676185e+07  -4.207530e+07  0  7.561440e+05   -6.770680e+05  -9.270170e+04  -3.236341e+05
-1.066137e+08  -9.711153e+07  -4.308160e+07  0  7.310424e+05   -6.305113e+05  -1.342350e+05  -3.447599e+05
-1.084059e+08  -9.756796e+07  -4.413459e+07  0  6.944914e+05   -5.730507e+05  -1.650743e+05  -3.559237e+05
-1.100128e+08  -9.809622e+07  -4.520258e+07  0  6.470232e+05   -5.081619e+05  -1.835515e+05  -3.559766e+05
-1.114191e+08  -9.865704e+07  -4.625071e+07  0  5.896001e+05   -4.401757e+05  -1.883243e+05  -3.441041e+05
-1.126242e+08  -9.920759e+07  -4.724360e+07  0  5.241681e+05   -3.742884e+05  -1.784962e+05  -3.206236e+05
-1.136430e+08  -9.970469e+07  -4.814822e+07  0  4.534995e+05   -3.155943e+05  -1.545228e+05  -2.866788e+05
-1.145054e+08  -1.001082e+08  -4.893665e+07  0  3.820927e+05   -2.689820e+05  -1.178705e+05  -2.444382e+05
-1.152545e+08  -1.003841e+08  -4.958902e+07  0  3.173173e+05   -2.384598e+05  -7.095429e+04  -1.969585e+05
-1.159435e+08  -1.005070e+08  -5.009570e+07  0  2.712635e+05   -2.267685e+05  -1.709133e+04  -1.478777e+05
-1.166311e+08  -1.004627e+08  -5.045823e+07  0  2.588997e+05   -2.350710e+05  3.973273e+04  -1.009553e+05
-1.173767e+08  -1.002496e+08  -5.068909e+07  0  2.858599e+05   -2.628395e+05  9.523044e+04  -5.968636e+04
-1.182352e+08  -9.987866e+07  -5.081012e+07  0  3.414866e+05   -3.079131e+05  1.451889e+05  -2.688475e+04
-1.192527e+08  -9.937311e+07  -5.084997e+07  0  4.111419e+05   -3.667195e+05  1.858381e+05  -4.326011e+03
-1.204629e+08  -9.876580e+07  -5.084047e+07  0  4.848069e+05   -4.347834e+05  2.143496e+05  7.446393e+03
-1.218854e+08  -9.809614e+07  -5.081323e+07  0  5.566570e+05   -5.072644e+05  2.290615e+05  8.986413e+03
-1.235252e+08  -9.740669e+07  -5.079609e+07  0  6.230338e+05   -5.792700e+05  2.293748e+05  2.151225e+03
-1.253735e+08  -9.673960e+07  -5.081031e+07  0  6.818521e+05   -6.466245e+05  2.160565e+05  -1.089117e+04
-1.274109e+08  -9.613262e+07  -5.087138e+07  0  7.321288e+05   -7.061955e+05  1.910423e+05  -2.834194e+04
-1.296102e+08  -9.561652e+07  -5.099010e+07  0  7.735033e+05   -7.558425e+05  1.569111e+05  -4.887130e+04
-1.319395e+08  -9.521387e+07  -5.117442e+07  0  8.060056e+05   -7.943064e+05  1.164664e+05  -7.181960e+04
-1.343642e+08  -9.493879e+07  -5.143097e+07  0  8.298819e+05   -8.210142e+05  7.253581e+04  -9.684051e+04
-1.368488e+08  -9.479728e+07  -5.176567e+07  0  8.454790e+05   -8.359044e+05  2.769108e+04  -1.238218e+05
-1.393585e+08  -9.478828e+07  -5.218427e+07  0  8.531226e+05   -8.392088e+05  -1.585369e+04  -1.526284e+05
-1.418591e+08  -9.490463e+07  -5.269145e+07  0  8.530386e+05   -8.313303e+05  -5.622269e+04  -1.827674e+05
-1.443180e+08  -9.513435e+07  -5.329003e+07  0  8.453641e+05   -8.127777e+05  -9.198213e+04  -2.134765e+05
-1.467044e+08  -9.546148e+07  -5.397959e+07  0  8.301375e+05   -7.842350e+05  -1.218742e+05  -2.434141e+05
-1.489899e+08  -9.586679e+07  -5.475521e+07  0  8.074475e+05   -7.466625e+05  -1.449666e+05  -2.710191e+05
-1.511494e+08  -9.632879e+07  -5.560693e+07  0  7.773440e+05   -7.012462e+05  -1.605937e+05  -2.944947e+05
-1.531623e+08  -9.682412e+07  -5.651938e+07  0  7.401215e+05   -6.496943e+05  -1.681843e+05  -3.120755e+05
-1.550134e+08  -9.732823e+07  -5.747228e+07  0  6.962433e+05   -5.940440e+05  -1.674566e+05  -3.222186e+05
-1.566946e+08  -9.781589e+07  -5.844114e+07  0  6.464409e+05   -5.367376e+05  -1.582481e+05  -3.236605e+05
-1.582055e+08  -9.826179e+07  -5.939856e+07  0  5.919625e+05   -4.806054e+05  -1.406248e+05  -3.156941e+05
-1.595550e+08  -9.864118e+07  -6.031638e+07  0  5.349087e+05   -4.287882e+05  -1.148785e+05  -2.984475e+05
-1.607611e+08  -9.893084e+07  -6.116803e+07  0  4.783275e+05   -3.843823e+05  -8.174307e+04  -2.727005e+05
-1.618510e+08  -9.911065e+07  -6.193037e+07  0  4.266756e+05   -3.502649e+05  -4.247243e+04  -2.399221e+05
-1.628594e+08  -9.916518e+07  -6.258537e+07  0  3.856886e+05   -3.286044e+05  1.109413e+03  -2.019247e+05
-1.638261e+08  -9.908518e+07  -6.312088e+07  0  3.618885e+05   -3.208019e+05  4.680150e+04  -1.608075e+05
-1.647936e+08  -9.886836e+07  -6.353132e+07  0  3.602974e+05   -3.274098e+05  9.219471e+04  -1.188157e+05
-1.658047e+08  -9.851976e+07  -6.381781e+07  0  3.813655e+05   -3.480774e+05  1.348205e+05  -7.813593e+04
-1.668997e+08  -9.805170e+07  -6.398763e+07  0  4.206517e+05   -3.815750e+05  1.723075e+05  -4.072407e+04
-1.681137e+08  -9.748334e+07  -6.405328e+07  0  4.715631e+05   -4.258212e+05  2.024404e+05  -8.120394e+03
-1.694743e+08  -9.683974e+07  -6.403102e+07  0  5.281376e+05   -4.781532e+05  2.234987e+05  1.863281e+04
-1.710009e+08  -9.615006e+07  -6.393947e+07  0  5.859223e+05   -5.355865e+05  2.343848e+05  3.893355e+04
-1.727035e+08  -9.544562e+07  -6.379836e+07  0  6.418061e+05   -5.950428e+05  2.346785e+05  5.258499e+04
-1.745831e+08  -9.475783e+07  -6.362748e+07  0  6.936818e+05   -6.535831e+05  2.246365e+05  5.968219e+04
-1.766326e+08  -9.411631e+07  -6.344611e+07  0  7.401841e+05   -7.086202e+05  2.051307e+05  6.042659e+04
-1.788378e+08  -9.354714e+07  -6.327283e+07  0  7.804628e+05   -7.579983e+05  1.775564e+05  5.508610e+04
-1.811787e+08  -9.307152e+07  -6.312533e+07  0  8.140499e+05   -8.000591e+05  1.437011e+05  4.396140e+04
-1.836314e+08  -9.270490e+07  -6.302049e+07  0  8.407717e+05   -8.336691e+05  1.055785e+05  2.731511e+04
-1.861695e+08  -9.245650e+07  -6.297421e+07  0  8.606089e+05   -8.581104e+05  6.529616e+04  5.539478e+03
-1.887647e+08  -9.232932e+07  -6.300105e+07  0  8.736833e+05   -8.730783e+05  2.489970e+04  -2.089938e+04
-1.913888e+08  -9.232047e+07  -6.311396e+07  0  8.801689e+05   -8.785629e+05  -1.371746e+04  -5.134629e+04
-1.940136e+08  -9.242184e+07  -6.332344e+07  0  8.802363e+05   -8.747635e+05  -4.897103e+04  -8.489170e+04
-1.966118e+08  -9.262120e+07  -6.363681e+07  0  8.740065e+05   -8.620160e+05  -7.960262e+04  -1.203290e+05
-1.991575e+08  -9.290306e+07  -6.405736e+07  0  8.615766e+05   -8.408041e+05  -1.046789e+05  -1.562214e+05
-2.016264e+08  -9.324964e+07  -6.458383e+07  0  8.430496e+05   -8.117817e+05  -1.235516e+05  -1.909922e+05
-2.039965e+08  -9.364169e+07  -6.521003e+07  0  8.185231e+05   -7.757670e+05  -1.358569e+05  -2.229540e+05
-2.062485e+08  -9.405931e+07  -6.592474e+07  0  7.881589e+05   -7.337960e+05  -1.414740e+05  -2.504457e+05
-2.083668e+08  -9.448246e+07  -6.671195e+07  0  7.522431e+05   -6.871822e+05  -1.403848e+05  -2.719235e+05
-2.103403e+08  -9.489094e+07  -6.755156e+07  0  7.115060e+05   -6.377779e+05  -1.325126e+05  -2.862176e+05
-2.121641e+08  -9.526473e+07  -6.842060e+07  0  6.668590e+05   -5.875487e+05  -1.180800e+05  -2.924800e+05
-2.138393e+08  -9.558486e+07  -6.929415e+07  0  6.195530e+05   -5.386010e+05  -9.750013e+04  -2.902562e+05
-2.153732e+08  -9.583397e+07  -7.014669e+07  0  5.712913e+05   -4.930889e+05  -7.142451e+04  -2.795275e+05
-2.167798e+08  -9.599703e+07  -7.095331e+07  0  5.242939e+05   -4.530686e+05  -4.071692e+04  -2.606819e+05
-2.180785e+08  -9.606188e+07  -7.169099e+07  0  4.814637e+05   -4.204334e+05  -6.419931e+03  -2.345246e+05
-2.192944e+08  -9.601980e+07  -7.233974e+07  0  4.463851e+05   -3.967940e+05  3.023548e+04  -2.022376e+05
-2.204565e+08  -9.586610e+07  -7.288373e+07  0  4.229722e+05   -3.833607e+05  6.782950e+04  -1.653457e+05
-2.215966e+08  -9.560053e+07  -7.331196e+07  0  4.144243e+05   -3.807978e+05  1.048193e+05  -1.255127e+05
-2.227476e+08  -9.522755e+07  -7.361855e+07  0  4.220483e+05   -3.892170e+05  1.396362e+05  -8.447837e+04
-2.239417e+08  -9.475625e+07  -7.380281e+07  0  4.446300e+05   -4.081725e+05  1.707583e+05  -4.396255e+04
-2.252089e+08  -9.420006e+07  -7.386902e+07  0  4.790202e+05   -4.366930e+05  1.967958e+05  -5.566218e+03
-2.265755e+08  -9.357623e+07  -7.382599e+07  0  5.213907e+05   -4.733762e+05  2.165772e+05  2.928393e+04
-2.280632e+08  -9.290506e+07  -7.368635e+07  0  5.681454e+05   -5.164483e+05  2.292118e+05  5.943380e+04
-2.296876e+08  -9.220897e+07  -7.346566e+07  0  6.162995e+05   -5.638713e+05  2.341189e+05  8.403939e+04
-2.314580e+08  -9.151174e+07  -7.318139e+07  0  6.634416e+05   -6.134120e+05  2.309757e+05  1.026193e+05
-2.333771e+08  -9.083720e+07  -7.285215e+07  0  7.078974e+05   -6.629696e+05  2.200006e+05  1.148467e+05
-2.354418e+08  -9.020782e+07  -7.249726e+07  0  7.484902e+05   -7.106103e+05  2.018254e+05  1.205701e+05
-2.376434e+08  -8.964358e+07  -7.213622e+07  0  7.844204e+05   -7.546436e+05  1.774304e+05  1.197782e+05
-2.399686e+08  -8.916101e+07  -7.178838e+07  0  8.151861e+05   -7.936791e+05  1.480795e+05  1.125804e+05
-2.424005e+08  -8.877255e+07  -7.147246e+07  0  8.404730e+05   -8.265998e+05  1.152208e+05  9.925614e+04
-2.449196e+08  -8.848603e+07  -7.120626e+07  0  8.601900e+05   -8.526617e+05  8.044765e+04  8.014452e+04
-2.475044e+08  -8.830448e+07  -7.100628e+07  0  8.743432e+05   -8.713843e+05  4.535899e+04  5.574960e+04
-2.501324e+08  -8.822626e+07  -7.088724e+07  0  8.829992e+05   -8.825194e+05  1.147030e+04  2.674825e+04
-2.527809e+08  -8.824547e+07  -7.086151e+07  0  8.862524e+05   -8.860093e+05  -1.987705e+04  -5.987504e+03
-2.554272e+08  -8.835261e+07  -7.093849e+07  0  8.842067e+05   -8.819544e+05  -4.760058e+04  -4.137706e+04
-2.580489e+08  -8.853543e+07  -7.112406e+07  0  8.769624e+05   -8.705888e+05  -7.090166e+04  -7.817477e+04
-2.606247e+08  -8.877968e+07  -7.142017e+07  0  8.646050e+05   -8.522630e+05  -8.920624e+04  -1.150297e+05
-2.631347e+08  -8.906977e+07  -7.182464e+07  0  8.472235e+05   -8.274588e+05  -1.021695e+05  -1.505354e+05
-2.655605e+08  -8.938947e+07  -7.233105e+07  0  8.249487e+05   -7.968189e+05  -1.096792e+05  -1.832770e+05
-2.678860e+08  -8.972251e+07  -7.292887e+07  0  7.980445e+05   -7.612227e+05  -1.117823e+05  -2.119428e+05
-2.700981e+08  -9.005296e+07  -7.360390e+07  0  7.668285e+05   -7.216847e+05  -1.086351e+05  -2.353627e+05
-2.721869e+08  -9.036548e+07  -7.433876e+07  0  7.317661e+05   -6.794085e+05  -1.004477e+05  -2.525788e+05
-2.741469e+08  -9.064516e+07  -7.511388e+07  0  6.937073e+05   -6.359316e+05  -8.734414e+04  -2.630435e+05
-2.759768e+08  -9.087792e+07  -7.590836e+07  0  6.535563e+05   -5.927251e+05  -6.972968e+04  -2.663654e+05
-2.776800e+08  -9.105114e+07  -7.670053e+07  0  6.124290e+05   -5.512648e+05  -4.814710e+04  -2.624084e+05
-2.792642e+08  -9.115400e+07  -7.746876e+07  0  5.717207e+05   -5.130029e+05  -2.322645e+04  -2.513030e+05
-2.807413e+08  -9.117770e+07  -7.819227e+07  0  5.331556e+05   -4.793109e+05  4.313381e+03  -2.334466e+05
-2.821270e+08  -9.111572e+07  -7.885190e+07  0  4.988057e+05   -4.514249e+05  3.366632e+04  -2.094975e+05
-2.834406e+08  -9.096413e+07  -7.943085e+07  0  4.709966e+05   -4.303811e+05  6.394816e+04  -1.803345e+05
-2.847039e+08  -9.072171e+07  -7.991526e+07  0  4.520450e+05   -4.169577e+05  9.421714e+04  -1.470173e+05
-2.859406e+08  -9.039014e+07  -8.029470e+07  0  4.438007e+05   -4.116358e+05  1.234961e+05  -1.107420e+05
-2.871752e+08  -8.997403e+07  -8.056242e+07  0  4.471110e+05   -4.145720e+05  1.508046e+05  -7.277556e+04
-2.884324e+08  -8.948090e+07  -8.071555e+07  0  4.615262e+05   -4.255929e+05  1.751959e+05  -3.440198e+04
-2.897354e+08  -8.892095e+07  -8.075496e+07  0  4.854498e+05   -4.442016e+05  1.957974e+05  3.133054e+03
-2.911058e+08  -8.830685e+07  -8.068514e+07  0  5.166319e+05   -4.696088e+05  2.118510e+05  3.866921e+04
-2.925622e+08  -8.765325e+07  -8.051387e+07  0  5.526865e+05   -5.007785e+05  2.227511e+05  7.117076e+04
-2.941199e+08  -8.697634e+07  -8.025173e+07  0  5.914325e+05   -5.364905e+05  2.280774e+05  9.975494e+04
-2.957901e+08  -8.629322e+07  -7.991170e+07  0  6.310290e+05   -5.754015e+05  2.276100e+05  1.237114e+05
-2.975801e+08  -8.562128e+07  -7.950857e+07  0  6.699918e+05   -6.161055e+05  2.213486e+05  1.425059e+05
-2.994929e+08  -8.497751e+07  -7.905844e+07  0  7.071700e+05   -6.572109e+05  2.095288e+05  1.557593e+05
-3.015275e+08  -8.437786e+07  -7.857831e+07  0  7.416918e+05   -6.973968e+05  1.925885e+05  1.632611e+05
-3.036791e+08  -8.383662e+07  -7.808554e+07  0  7.729190e+05   -7.354584e+05  1.711782e+05  1.649324e+05
-3.059394e+08  -8.336578e+07  -7.759755e+07  0  8.004134e+05   -7.703584e+05  1.461269e+05  1.607998e+05
-3.082976e+08  -8.297468e+07  -7.713154e+07  0  8.238844e+05   -8.012330e+05  1.183875e+05  1.509821e+05
-3.107404e+08  -8.266961e+07  -7.670416e+07  0  8.431489e+05   -8.273799e+05  8.901321e+04  1.357171e+05
-3.132527e+08  -8.245358e+07  -7.633104e+07  0  8.581187e+05   -8.482634e+05  5.911452e+04  1.154225e+05
-3.158180e+08  -8.232635e+07  -7.602634e+07  0  8.687590e+05   -8.635045e+05  2.976567e+04  9.064250e+04
-3.184191e+08  -8.228463e+07  -7.580242e+07  0  8.750841e+05   -8.728804e+05  1.921147e+03  6.203509e+04
-3.210382e+08  -8.232245e+07  -7.566942e+07  0  8.771186e+05   -8.762756e+05  -2.356103e+04  3.038055e+04
-3.236574e+08  -8.243142e+07  -7.563499e+07  0  8.748930e+05   -8.736810e+05  -4.590820e+04  -3.412489e+03
-3.262589e+08  -8.260110e+07  -7.570384e+07  0  8.684676e+05   -8.652181e+05  -6.452766e+04  -3.833719e+04
-3.288255e+08  -8.281966e+07  -7.587758e+07  0  8.579305e+05   -8.511273e+05  -7.904458e+04  -7.334076e+04
-3.313410e+08  -8.307444e+07  -7.615467e+07  0  8.433907e+05   -8.317544e+05  -8.925266e+04  -1.073612e+05
-3.337902e+08  -8.335238e+07  -7.653039e+07  0  8.249798e+05   -8.075501e+05  -9.506802e+04  -1.393430e+05
-3.361597e+08  -8.364039e+07  -7.699693e+07  0  8.028688e+05   -7.790732e+05  -9.655017e+04  -1.682896e+05
-3.384377e+08  -8.392576e+07  -7.754366e+07  0  7.772883e+05   -7.469979e+05  -9.384730e+04  -1.932973e+05
-3.406148e+08  -8.419629e+07  -7.815745e+07  0  7.485453e+05   -7.121118e+05  -8.717700e+04  -2.135813e+05
-3.426841e+08  -8.444057e+07  -7.882306e+07  0  7.170446e+05   -6.753059e+05  -7.681056e+04  -2.285060e+05
-3.446414e+08  -8.464806e+07  -7.952359e+07  0  6.833082e+05   -6.375585e+05  -6.306334e+04  -2.375967e+05
-3.464856e+08  -8.480924e+07  -8.024107e+07  0  6.480032e+05   -5.999123e+05  -4.629493e+04  -2.405623e+05
-3.482189e+08  -8.491571e+07  -8.095694e+07  0  6.119720e+05   -5.634478e+05  -2.689557e+04  -2.373034e+05
-3.498467e+08  -8.496031e+07  -8.165270e+07  0  5.762612e+05   -5.292492e+05  -5.294508e+03  -2.279128e+05
-3.513775e+08  -8.493724e+07  -8.231046e+07  0  5.421783e+05   -4.983853e+05  1.804643e+04  -2.127059e+05
-3.528229e+08  -8.484213e+07  -8.291361e+07  0  5.112326e+05   -4.718228e+05  4.260288e+04  -1.921640e+05
-3.541973e+08  -8.467232e+07  -8.344720e+07  0  4.851015e+05   -4.504014e+05  6.780252e+04  -1.669278e+05
-3.555174e+08  -8.442688e+07  -8.389856e+07  0  4.655440e+05   -4.348296e+05  9.304311e+04  -1.378313e+05
-3.568014e+08  -8.410678e+07  -8.425765e+07  0  4.540435e+05   -4.255824e+05  1.176727e+05  -1.057744e+05
-3.580687e+08  -8.371496e+07  -8.451719e+07  0  4.515369e+05   -4.229116e+05  1.410296e+05  -7.170737e+04
-3.593392e+08  -8.325633e+07  -8.467283e+07  0  4.581936e+05   -4.268537e+05  1.624696e+05  -3.661879e+04
-3.606324e+08  -8.273766e+07  -8.472319e+07  0  4.733547e+05   -4.372282e+05  1.813669e+05  -1.504741e+03
-3.619669e+08  -8.216758e+07  -8.466982e+07  0  4.957043e+05   -4.536418e+05  1.971399e+05  3.267616e+04
-3.633599e+08  -8.155626e+07  -8.451703e+07  0  5.235907e+05   -4.755107e+05  2.093019e+05  6.503526e+04
-3.648265e+08  -8.091521e+07  -8.427164e+07  0  5.553076e+05   -5.020908e+05  2.174629e+05  9.476953e+04
-3.663793e+08  -8.025689e+07  -8.394271e+07  0  5.892731e+05   -5.325098e+05  2.213404e+05  1.211800e+05
-3.680282e+08  -7.959439e+07  -8.354121e+07  0  6.241316e+05   -5.658116e+05  2.208021e+05  1.436798e+05
-3.697801e+08  -7.894094e+07  -8.307965e+07  0  6.587570e+05   -6.009884e+05  2.158550e+05  1.618032e+05
-3.716389e+08  -7.830963e+07  -8.257168e+07  0  6.921744e+05   -6.369650e+05  2.065651e+05  1.752482e+05
-3.736053e+08  -7.771306e+07  -8.203166e+07  0  7.236544e+05   -6.727286e+05  1.932011e+05  1.838079e+05
-3.756770e+08  -7.716274e+07  -8.147443e+07  0  7.526587e+05   -7.073486e+05  1.761994e+05  1.873685e+05
-3.778491e+08  -7.666863e+07  -8.091498e+07  0  7.787785e+05   -7.399729e+05  1.561056e+05  1.859224e+05
-3.801143e+08  -7.623896e+07  -8.036815e+07  0  8.017143e+05   -7.698484e+05  1.335532e+05  1.795628e+05
-3.824635e+08  -7.587985e+07  -7.984840e+07  0  8.212850e+05   -7.963587e+05  1.092840e+05  1.684602e+05
-3.848855e+08  -7.559512e+07  -7.936949e+07  0  8.373840e+05   -8.190061e+05  8.408192e+04  1.528760e+05
-3.873683e+08  -7.538625e+07  -7.894425e+07  0  8.499595e+05   -8.374064e+05  5.873548e+04  1.331609e+05
-3.898986e+08  -7.525235e+07  -7.858434e+07  0  8.589959e+05   -8.512751e+05  3.400941e+04  1.097634e+05
-3.924624e+08  -7.519038e+07  -7.829986e+07  0  8.645049e+05   -8.604241e+05  1.061072e+04  8.322596e+04
-3.950455e+08  -7.519527e+07  -7.809919e+07  0  8.665144e+05   -8.647513e+05  -1.083596e+04  5.417554e+04
-3.976334e+08  -7.526030e+07  -7.798867e+07  0  8.650626e+05   -8.642344e+05  -2.981196e+04  2.331157e+04
-4.002117e+08  -7.537735e+07  -7.797248e+07  0  8.601946e+05   -8.589253e+05  -4.591181e+04  -8.607265e+03
-4.027662e+08  -7.553731e+07  -7.805243e+07  0  8.519634e+05   -8.489494e+05  -5.885006e+04  -4.078208e+04
-4.052833e+08  -7.573041e+07  -7.822791e+07  0  8.404326e+05   -8.345053e+05  -6.845622e+04  -7.239806e+04
-4.077500e+08  -7.594654e+07  -7.849590e+07  0  8.256818e+05   -8.158671e+05  -7.466471e+04  -1.026478e+05
-4.101544e+08  -7.617555e+07  -7.885098e+07  0  8.078147e+05   -7.933862e+05  -7.750073e+04  -1.307539e+05
-4.124856e+08  -7.640750e+07  -7.928550e+07  0  7.869665e+05   -7.674926e+05  -7.706279e+04  -1.559895e+05
-4.147344e+08  -7.663286e+07  -7.978974e+07  0  7.633158e+05   -7.386955e+05  -7.350756e+04  -1.776980e+05
-4.168929e+08  -7.684261e+07  -8.035219e+07  0  7.370980e+05   -7.075815e+05  -6.703321e+04  -1.953161e+05
-4.189553e+08  -7.702839e+07  -8.095979e+07  0  7.086170e+05   -6.748090e+05  -5.786747e+04  -2.083798e+05
-4.209180e+08  -7.718257e+07  -8.159830e+07  0  6.782633e+05   -6.411020e+05  -4.625286e+04  -2.165409e+05
-4.227793e+08  -7.729820e+07  -8.225267e+07  0  6.465626e+05   -6.072615e+05  -3.241796e+04  -2.196034e+05
-4.245404e+08  -7.736907e+07  -8.290751e+07  0  6.141453e+05   -5.741042e+05  -1.662163e+04  -2.174916e+05
-4.262045e+08  -7.738977e+07  -8.354737e+07  0  5.817771e+05   -5.424520e+05  8.556732e+02  -2.102609e+05
-4.277777e+08  -7.735568e+07  -8.415734e+07  0  5.504684e+05   -5.131788e+05  1.977191e+04  -1.981720e+05
-4.292685e+08  -7.726305e+07  -8.472343e+07  0  5.213013e+05   -4.870404e+05  3.978653e+04  -1.815592e+05
-4.306872e+08  -7.710925e+07  -8.523281e+07  0  4.954568e+05   -4.646966e+05  6.050810e+04  -1.608519e+05
-4.320463e+08  -7.689284e+07  -8.567408e+07  0  4.741873e+05   -4.467131e+05  8.152079e+04  -1.365846e+05
-4.333596e+08  -7.661369e+07  -8.603763e+07  0  4.586985e+05   -4.335404e+05  1.023893e+05  -1.093778e+05
-4.346421e+08  -7.627298e+07  -8.631580e+07  0  4.499809e+05   -4.254985e+05  1.226665e+05  -7.991743e+04
-4.359094e+08  -7.587323e+07  -8.650307e+07  0  4.486227e+05   -4.227661e+05  1.419031e+05  -4.893505e+04
-4.371775e+08  -7.541832e+07  -8.659615e+07  0  4.546743e+05   -4.253735e+05  1.596583e+05  -1.718570e+04
-4.384623e+08  -7.491337e+07  -8.659403e+07  0  4.676346e+05   -4.332028e+05  1.755136e+05  1.457535e+04
-4.397789e+08  -7.436473e+07  -8.649790e+07  0  4.865635e+05   -4.459932e+05  1.890856e+05  4.561574e+04
-4.411416e+08  -7.377981e+07  -8.631111e+07  0  5.102683e+05   -4.633533e+05  2.000388e+05  7.524554e+04
-4.425633e+08  -7.316693e+07  -8.603894e+07  0  5.374854e+05   -4.847785e+05  2.081003e+05  1.028332e+05
-4.440550e+08  -7.253509e+07  -8.568848e+07  0  5.670098e+05   -5.096702e+05  2.130691e+05  1.278200e+05
-4.456261e+08  -7.189377e+07  -8.526832e+07  0  5.977664e+05   -5.373601e+05  2.148251e+05  1.497297e+05
-4.472837e+08  -7.125267e+07  -8.478834e+07  0  6.288408e+05   -5.671399e+05  2.133328e+05  1.681732e+05
-4.490329e+08  -7.062143e+07  -8.425946e+07  0  6.594710e+05   -5.982772e+05  2.086463e+05  1.828473e+05
-4.508766e+08  -7.000939e+07  -8.369334e+07  0  6.890361e+05   -6.300398e+05  2.009057e+05  1.935394e+05
-4.528153e+08  -6.942543e+07  -8.310211e+07  0  7.170383e+05   -6.617312e+05  1.902789e+05  2.001241e+05
-4.548477e+08  -6.887789e+07  -8.249812e+07  0  7.430295e+05   -6.926378e+05  1.769256e+05  2.025905e+05