VARIABLES="Lon", "Lat",  "Cutoff Rigidity [GV] (s=0)", "Injected Particle Number (s=0)", "Max energy injected particles (s=0)"
ZONE I=21, J=21, DATAPACKING=POINT
-1.800000e+02 9.000000e+01   -1.000000e+00  4.975000e+02  4.979860e+01
-1.620000e+02 9.000000e+01   -1.000000e+00  4.910000e+02  4.642806e+01
-1.440000e+02 9.000000e+01   -1.000000e+00  4.960000e+02  3.505581e+01
-1.260000e+02 9.000000e+01   -1.000000e+00  4.930000e+02  7.036348e+00
-1.080000e+02 9.000000e+01   -1.000000e+00  4.895000e+02  4.669513e+01
-9.000000e+01 9.000000e+01   -1.000000e+00  4.990000e+02  3.203413e+01
-7.200000e+01 9.000000e+01   -1.000000e+00  5.005000e+02  1.720140e+01
-5.400000e+01 9.000000e+01   -1.000000e+00  5.000000e+02  1.630634e+01
-3.600000e+01 9.000000e+01   -1.000000e+00  5.000000e+02  1.524709e+01
-1.800000e+01 9.000000e+01   -1.000000e+00  5.000000e+02  2.041164e+01
0.000000e+00 9.000000e+01   -1.000000e+00  5.000000e+02  1.728617e+01
1.800000e+01 9.000000e+01   -1.000000e+00  5.000000e+02  5.236141e+00
3.600000e+01 9.000000e+01   -1.000000e+00  5.000000e+02  2.029117e+00
5.400000e+01 9.000000e+01   -1.000000e+00  5.000000e+02  5.666641e+00
7.200000e+01 9.000000e+01   -1.000000e+00  5.000000e+02  3.617806e+00
9.000000e+01 9.000000e+01   -1.000000e+00  4.995000e+02  3.437700e+01
1.080000e+02 9.000000e+01   -1.000000e+00  5.070000e+02  2.201612e+01
1.260000e+02 9.000000e+01   -1.000000e+00  5.085000e+02  1.440382e+01
1.440000e+02 9.000000e+01   -1.000000e+00  5.035000e+02  3.966604e+00
1.620000e+02 9.000000e+01   -1.000000e+00  5.030000e+02  4.418154e+01
1.800000e+02 9.000000e+01   -1.000000e+00  4.975000e+02  4.979860e+01
-1.800000e+02 8.100000e+01   -1.000000e+00  5.031134e+02  1.063267e+01
-1.620000e+02 8.100000e+01   -1.000000e+00  5.003556e+02  2.456335e+00
-1.440000e+02 8.100000e+01   -1.000000e+00  5.012392e+02  6.593205e+00
-1.260000e+02 8.100000e+01   -1.000000e+00  4.986134e+02  1.525500e+00
-1.080000e+02 8.100000e+01   -1.000000e+00  4.973587e+02  7.503565e+00
-9.000000e+01 8.100000e+01   -1.000000e+00  5.004969e+02  3.371763e+01
-7.200000e+01 8.100000e+01   -1.000000e+00  5.031196e+02  3.541601e+01
-5.400000e+01 8.100000e+01   -1.000000e+00  4.962577e+02  4.325913e+01
-3.600000e+01 8.100000e+01   -1.000000e+00  4.906444e+02  1.152003e+01
-1.800000e+01 8.100000e+01   -1.000000e+00  5.026196e+02  2.953474e+01
0.000000e+00 8.100000e+01   -1.000000e+00  4.962577e+02  8.437754e+00
1.800000e+01 8.100000e+01   -1.000000e+00  4.973804e+02  1.978907e+01
3.600000e+01 8.100000e+01   -1.000000e+00  5.104783e+02  3.031037e+01
5.400000e+01 8.100000e+01   -1.000000e+00  5.078587e+02  3.048232e+01
7.200000e+01 8.100000e+01   -1.000000e+00  5.130979e+02  4.374040e+01
9.000000e+01 8.100000e+01   -1.000000e+00  5.081072e+02  4.493827e+01
1.080000e+02 8.100000e+01   -1.000000e+00  5.002639e+02  4.863327e+01
1.260000e+02 8.100000e+01   -1.000000e+00  5.010155e+02  2.904417e+01
1.440000e+02 8.100000e+01   -1.000000e+00  5.008804e+02  4.574983e+00
1.620000e+02 8.100000e+01   -1.000000e+00  5.037485e+02  2.823276e+01
1.800000e+02 8.100000e+01   -1.000000e+00  5.031134e+02  1.063267e+01
-1.800000e+02 7.200000e+01   -1.000000e+00  5.053106e+02  3.323591e+00
-1.620000e+02 7.200000e+01   -1.000000e+00  5.013261e+02  9.147695e+00
-1.440000e+02 7.200000e+01   -1.000000e+00  4.983417e+02  5.124445e+00
-1.260000e+02 7.200000e+01   -1.000000e+00  4.967733e+02  7.367930e+00
-1.080000e+02 7.200000e+01   -1.000000e+00  4.987578e+02  3.707543e+00
-9.000000e+01 7.200000e+01   -1.000000e+00  4.997578e+02  3.302362e+00
-7.200000e+01 7.200000e+01   -1.000000e+00  5.015156e+02  1.436737e+01
-5.400000e+01 7.200000e+01   -1.000000e+00  5.009005e+02  3.444517e+01
-3.600000e+01 7.200000e+01   -1.000000e+00  4.980589e+02  2.609479e+01
-1.800000e+01 7.200000e+01   -1.000000e+00  5.013261e+02  3.362577e+00
0.000000e+00 7.200000e+01   -1.000000e+00  4.981055e+02  3.410754e+01
1.800000e+01 7.200000e+01   -1.000000e+00  4.986739e+02  1.029456e+00
3.600000e+01 7.200000e+01   -1.000000e+00  5.053045e+02  2.217114e+00
5.400000e+01 7.200000e+01   -1.000000e+00  5.042889e+02  4.917189e+01
7.200000e+01 7.200000e+01   -1.000000e+00  5.050778e+02  4.847541e+01
9.000000e+01 7.200000e+01   -1.000000e+00  5.023045e+02  4.611976e+01
1.080000e+02 7.200000e+01   -1.000000e+00  4.942733e+02  5.539097e+00
1.260000e+02 7.200000e+01   -1.000000e+00  4.944628e+02  3.873439e+00
1.440000e+02 7.200000e+01   -1.000000e+00  5.006211e+02  2.987182e+01
1.620000e+02 7.200000e+01   -1.000000e+00  5.055528e+02  1.239420e+01
1.800000e+02 7.200000e+01   -1.000000e+00  5.053106e+02  3.323591e+00
-1.800000e+02 6.300000e+01   -1.000000e+00  5.023252e+02  3.856173e+00
-1.620000e+02 6.300000e+01   -1.000000e+00  5.000000e+02  2.092885e+00
-1.440000e+02 6.300000e+01   -1.000000e+00  4.992520e+02  4.208671e+01
-1.260000e+02 6.300000e+01   -1.000000e+00  4.973862e+02  2.765074e+01
-1.080000e+02 6.300000e+01   -1.000000e+00  4.930935e+02  2.591213e+01
-9.000000e+01 6.300000e+01   -1.000000e+00  4.949594e+02  3.229670e+01
-7.200000e+01 6.300000e+01   -1.000000e+00  5.000000e+02  1.050871e+00
-5.400000e+01 6.300000e+01   -1.000000e+00  5.001708e+02  4.808980e+01
-3.600000e+01 6.300000e+01   -1.000000e+00  5.001708e+02  3.884505e+01
-1.800000e+01 6.300000e+01   -1.000000e+00  5.000000e+02  1.072246e+01
0.000000e+00 6.300000e+01   -1.000000e+00  5.000000e+02  1.389183e+00
1.800000e+01 6.300000e+01   -1.000000e+00  5.000000e+02  3.473300e+01
3.600000e+01 6.300000e+01   -1.000000e+00  5.000000e+02  2.524179e+01
5.400000e+01 6.300000e+01   -1.000000e+00  5.062723e+02  3.745576e+01
7.200000e+01 6.300000e+01   -1.000000e+00  5.050040e+02  1.322937e+00
9.000000e+01 6.300000e+01   -1.000000e+00  4.987317e+02  5.231349e+00
1.080000e+02 6.300000e+01   -1.000000e+00  4.966178e+02  2.854441e+01
1.260000e+02 6.300000e+01   -1.000000e+00  4.980609e+02  5.947236e+00
1.440000e+02 6.300000e+01   -1.000000e+00  5.004228e+02  1.642081e+01
1.620000e+02 6.300000e+01   -1.000000e+00  5.013049e+02  1.337880e+01
1.800000e+02 6.300000e+01   -1.000000e+00  5.023252e+02  3.856173e+00
-1.800000e+02 5.400000e+01   -1.000000e+00  5.000000e+02  1.316318e+01
-1.620000e+02 5.400000e+01   -1.000000e+00  5.000000e+02  1.149758e+00
-1.440000e+02 5.400000e+01   -1.000000e+00  4.956271e+02  1.236172e+01
-1.260000e+02 5.400000e+01   -1.000000e+00  4.995000e+02  3.438344e+00
-1.080000e+02 5.400000e+01   -1.000000e+00  5.003062e+02  3.279324e+00
-9.000000e+01 5.400000e+01   -1.000000e+00  4.964333e+02  2.262930e+01
-7.200000e+01 5.400000e+01   -1.000000e+00  5.000000e+02  1.888532e+01
-5.400000e+01 5.400000e+01   -1.000000e+00  5.050353e+02  7.278276e+00
-3.600000e+01 5.400000e+01   -1.000000e+00  5.050353e+02  1.147383e+00
-1.800000e+01 5.400000e+01   -1.000000e+00  5.000000e+02  3.995119e+00
0.000000e+00 5.400000e+01   -1.000000e+00  5.000000e+02  2.425904e+01
1.800000e+01 5.400000e+01   -1.000000e+00  5.000000e+02  8.987800e+00
3.600000e+01 5.400000e+01   -1.000000e+00  5.000000e+02  3.856813e+01
5.400000e+01 5.400000e+01   -1.000000e+00  5.010792e+02  2.948142e+01
7.200000e+01 5.400000e+01   -1.000000e+00  5.010792e+02  1.013132e+01
9.000000e+01 5.400000e+01   -1.000000e+00  5.000000e+02  1.045757e+01
1.080000e+02 5.400000e+01   -1.000000e+00  5.000000e+02  1.988515e+01
1.260000e+02 5.400000e+01   -1.000000e+00  4.980667e+02  4.309985e+01
1.440000e+02 5.400000e+01   -1.000000e+00  4.952896e+02  4.616516e+01
1.620000e+02 5.400000e+01   -1.000000e+00  4.972229e+02  1.468863e+00
1.800000e+02 5.400000e+01   -1.000000e+00  5.000000e+02  1.316318e+01
-1.800000e+02 4.500000e+01   -1.000000e+00  5.000000e+02  3.391808e+01
-1.620000e+02 4.500000e+01   -1.000000e+00  5.000000e+02  3.848681e+00
-1.440000e+02 4.500000e+01   -1.000000e+00  4.967025e+02  1.403698e+01
-1.260000e+02 4.500000e+01   -1.000000e+00  5.008484e+02  4.001921e+01
-1.080000e+02 4.500000e+01   -1.000000e+00  5.001007e+02  1.561414e+01
-9.000000e+01 4.500000e+01   -1.000000e+00  4.962245e+02  2.386459e+01
-7.200000e+01 4.500000e+01   -1.000000e+00  5.002697e+02  1.524016e+00
-5.400000e+01 4.500000e+01   -1.000000e+00  5.079942e+02  3.367881e+01
-3.600000e+01 4.500000e+01   -1.000000e+00  5.079942e+02  3.651103e+01
-1.800000e+01 4.500000e+01   -1.000000e+00  5.000000e+02  5.746919e+00
0.000000e+00 4.500000e+01   -1.000000e+00  4.997303e+02  2.075221e+01
1.800000e+01 4.500000e+01   -1.000000e+00  4.997303e+02  1.378620e+00
3.600000e+01 4.500000e+01   -1.000000e+00  5.000000e+02  1.853632e+00
5.400000e+01 4.500000e+01   -1.000000e+00  5.040173e+02  2.177247e+01
7.200000e+01 4.500000e+01   -1.000000e+00  5.040173e+02  1.605004e+01
9.000000e+01 4.500000e+01   -1.000000e+00  5.000000e+02  4.096201e+01
1.080000e+02 4.500000e+01   -1.000000e+00  4.994606e+02  6.502870e+00
1.260000e+02 4.500000e+01   -1.000000e+00  4.985451e+02  4.849336e+01
1.440000e+02 4.500000e+01   -1.000000e+00  4.971632e+02  1.032160e+01
1.620000e+02 4.500000e+01   -1.000000e+00  4.980787e+02  7.639789e+00
1.800000e+02 4.500000e+01   -1.000000e+00  5.000000e+02  3.391808e+01
-1.800000e+02 3.600000e+01   -1.000000e+00  5.000000e+02  1.938531e+00
-1.620000e+02 3.600000e+01   -1.000000e+00  5.000000e+02  8.558341e+00
-1.440000e+02 3.600000e+01   -1.000000e+00  4.993570e+02  3.329929e+01
-1.260000e+02 3.600000e+01   -1.000000e+00  4.993570e+02  4.112044e+01
-1.080000e+02 3.600000e+01   -1.000000e+00  4.943501e+02  2.917736e+01
-9.000000e+01 3.600000e+01   -1.000000e+00  4.940572e+02  2.626387e+01
-7.200000e+01 3.600000e+01   -1.000000e+00  4.997071e+02  8.311541e+00
-5.400000e+01 3.600000e+01   -1.000000e+00  5.031499e+02  3.842238e+01
-3.600000e+01 3.600000e+01   -1.000000e+00  5.028856e+02  1.527300e+01
-1.800000e+01 3.600000e+01   -1.000000e+00  4.997357e+02  2.264732e+01
0.000000e+00 3.600000e+01   -1.000000e+00  4.870781e+02  5.720820e+00
1.800000e+01 3.600000e+01   -1.000000e+00  4.870781e+02  8.665004e+00
3.600000e+01 3.600000e+01   -1.000000e+00  5.000000e+02  2.305687e+01
5.400000e+01 3.600000e+01   -1.000000e+00  5.071855e+02  6.389394e+00
7.200000e+01 3.600000e+01   -1.000000e+00  5.071855e+02  1.127645e+00
9.000000e+01 3.600000e+01   -1.000000e+00  5.000000e+02  2.357226e+00
1.080000e+02 3.600000e+01   -1.000000e+00  4.979428e+02  2.876763e+01
1.260000e+02 3.600000e+01   -1.000000e+00  5.057001e+02  3.460396e+01
1.440000e+02 3.600000e+01   -1.000000e+00  5.120432e+02  2.377783e+01
1.620000e+02 3.600000e+01   -1.000000e+00  5.042859e+02  1.900569e+00
1.800000e+02 3.600000e+01   -1.000000e+00  5.000000e+02  1.938531e+00
-1.800000e+02 2.700000e+01   -1.000000e+00  5.000000e+02  8.095204e+00
-1.620000e+02 2.700000e+01   -1.000000e+00  5.000000e+02  8.700923e+00
-1.440000e+02 2.700000e+01   -1.000000e+00  4.977801e+02  1.101884e+01
-1.260000e+02 2.700000e+01   -1.000000e+00  4.967400e+02  2.407409e+00
-1.080000e+02 2.700000e+01   -1.000000e+00  4.970401e+02  1.038127e+01
-9.000000e+01 2.700000e+01   -1.000000e+00  4.976003e+02  6.420521e+00
-7.200000e+01 2.700000e+01   -1.000000e+00  4.995201e+02  5.264655e+00
-5.400000e+01 2.700000e+01   -1.000000e+00  4.996798e+02  2.378242e+01
-3.600000e+01 2.700000e+01   -1.000000e+00  5.025602e+02  3.267942e+01
-1.800000e+01 2.700000e+01   -1.000000e+00  5.028803e+02  7.789060e+00
0.000000e+00 2.700000e+01   -1.000000e+00  4.866610e+02  1.094060e+01
1.800000e+01 2.700000e+01   -1.000000e+00  4.887412e+02  3.225101e+01
3.600000e+01 2.700000e+01   -1.000000e+00  5.010401e+02  4.980528e+00
5.400000e+01 2.700000e+01   -1.000000e+00  5.038202e+02  6.159780e+00
7.200000e+01 2.700000e+01   -1.000000e+00  5.048603e+02  5.030473e+00
9.000000e+01 2.700000e+01   -1.000000e+00  5.000000e+02  4.059084e+01
1.080000e+02 2.700000e+01   -1.000000e+00  4.985602e+02  4.844236e+01
1.260000e+02 2.700000e+01   -1.000000e+00  5.043195e+02  4.617338e+01
1.440000e+02 2.700000e+01   -1.000000e+00  5.082588e+02  4.491717e+00
1.620000e+02 2.700000e+01   -1.000000e+00  5.024994e+02  3.314308e+01
1.800000e+02 2.700000e+01   -1.000000e+00  5.000000e+02  8.095204e+00
-1.800000e+02 1.800000e+01   -1.000000e+00  5.000000e+02  2.065893e+00
-1.620000e+02 1.800000e+01   -1.000000e+00  5.000000e+02  1.306117e+00
-1.440000e+02 1.800000e+01   -1.000000e+00  4.992692e+02  1.523064e+01
-1.260000e+02 1.800000e+01   -1.000000e+00  4.970128e+02  8.570438e+00
-1.080000e+02 1.800000e+01   -1.000000e+00  4.977436e+02  3.990173e+00
-9.000000e+01 1.800000e+01   -1.000000e+00  4.992308e+02  2.187155e+00
-7.200000e+01 1.800000e+01   -1.000000e+00  4.994872e+02  1.205391e+01
-5.400000e+01 1.800000e+01   -1.000000e+00  4.992820e+02  3.931900e+00
-3.600000e+01 1.800000e+01   -1.000000e+00  5.022052e+02  3.515719e+01
-1.800000e+01 1.800000e+01   -1.000000e+00  5.031797e+02  1.029469e+01
0.000000e+00 1.800000e+01   -1.000000e+00  5.006023e+02  1.904170e+00
1.800000e+01 1.800000e+01   -1.000000e+00  5.033203e+02  3.979079e+01
3.600000e+01 1.800000e+01   -1.000000e+00  5.017436e+02  4.887306e+00
5.400000e+01 1.800000e+01   -1.000000e+00  5.031925e+02  1.641707e+01
7.200000e+01 1.800000e+01   -1.000000e+00  5.041669e+02  1.713670e+01
9.000000e+01 1.800000e+01   -1.000000e+00  5.000000e+02  3.355814e+00
1.080000e+02 1.800000e+01   -1.000000e+00  5.000000e+02  3.748065e+01
1.260000e+02 1.800000e+01   -1.000000e+00  5.000000e+02  2.853515e+01
1.440000e+02 1.800000e+01   -1.000000e+00  5.006023e+02  7.432856e+00
1.620000e+02 1.800000e+01   -1.000000e+00  5.006023e+02  1.073951e+00
1.800000e+02 1.800000e+01   -1.000000e+00  5.000000e+02  2.065893e+00
-1.800000e+02 9.000000e+00   -1.000000e+00  5.000000e+02  1.398207e+01
-1.620000e+02 9.000000e+00   -1.000000e+00  5.000000e+02  2.664793e+01
-1.440000e+02 9.000000e+00   -1.000000e+00  5.000000e+02  2.456031e+01
-1.260000e+02 9.000000e+00   -1.000000e+00  5.040810e+02  4.618363e+01
-1.080000e+02 9.000000e+00   -1.000000e+00  5.040810e+02  2.087785e+00
-9.000000e+01 9.000000e+00   -1.000000e+00  4.979938e+02  2.063680e+01
-7.200000e+01 9.000000e+00   -1.000000e+00  4.952033e+02  2.616899e+01
-5.400000e+01 9.000000e+00   -1.000000e+00  5.002469e+02  2.011935e+01
-3.600000e+01 9.000000e+00   -1.000000e+00  5.055623e+02  1.303053e+01
-1.800000e+01 9.000000e+00   -1.000000e+00  5.015125e+02  2.608401e+00
0.000000e+00 9.000000e+00   -1.000000e+00  5.012095e+02  3.485319e+00
1.800000e+01 9.000000e+00   -1.000000e+00  5.042282e+02  3.349304e+01
3.600000e+01 9.000000e+00   -1.000000e+00  5.055499e+02  4.733287e+01
5.400000e+01 9.000000e+00   -1.000000e+00  5.030249e+02  4.479530e+01
7.200000e+01 9.000000e+00   -1.000000e+00  5.020125e+02  7.519397e+00
9.000000e+01 9.000000e+00   -1.000000e+00  5.022780e+02  4.054534e+01
1.080000e+02 9.000000e+00   -1.000000e+00  4.997469e+02  1.530852e+01
1.260000e+02 9.000000e+00   -1.000000e+00  5.000000e+02  2.420025e+01
1.440000e+02 9.000000e+00   -1.000000e+00  4.981721e+02  2.355434e+01
1.620000e+02 9.000000e+00   -1.000000e+00  4.981721e+02  1.802716e+00
1.800000e+02 9.000000e+00   -1.000000e+00  5.000000e+02  1.398207e+01
-1.800000e+02 3.508355e-15   -1.000000e+00  5.035000e+02  2.439662e+00
-1.620000e+02 3.508355e-15   -1.000000e+00  5.000000e+02  4.252244e+01
-1.440000e+02 3.508355e-15   -1.000000e+00  4.982500e+02  1.140409e+01
-1.260000e+02 3.508355e-15   -1.000000e+00  5.050000e+02  1.124207e+01
-1.080000e+02 3.508355e-15   -1.000000e+00  5.087500e+02  1.900462e+01
-9.000000e+01 3.508355e-15   -1.000000e+00  4.995000e+02  3.244222e+00
-7.200000e+01 3.508355e-15   -1.000000e+00  4.945000e+02  1.644071e+01
-5.400000e+01 3.508355e-15   -1.000000e+00  5.000000e+02  9.815592e+00
-3.600000e+01 3.508355e-15   -1.000000e+00  5.060000e+02  2.193637e+01
-1.800000e+01 3.508355e-15   -1.000000e+00  5.020000e+02  7.229985e+00
0.000000e+00 3.508355e-15   -1.000000e+00  4.990000e+02  1.502490e+00
1.800000e+01 3.508355e-15   -1.000000e+00  5.012500e+02  2.520495e+01
3.600000e+01 3.508355e-15   -1.000000e+00  5.047500e+02  1.355380e+01
5.400000e+01 3.508355e-15   -1.000000e+00  4.987500e+02  5.002328e+00
7.200000e+01 3.508355e-15   -1.000000e+00  4.977500e+02  4.856026e+01
9.000000e+01 3.508355e-15   -1.000000e+00  5.030000e+02  1.357545e+01
1.080000e+02 3.508355e-15   -1.000000e+00  4.970000e+02  5.247354e+00
1.260000e+02 3.508355e-15   -1.000000e+00  5.005000e+02  1.171347e+01
1.440000e+02 3.508355e-15   -1.000000e+00  4.997500e+02  4.977091e+00
1.620000e+02 3.508355e-15   -1.000000e+00  4.992500e+02  3.492450e+00
1.800000e+02 3.508355e-15   -1.000000e+00  5.035000e+02  2.439662e+00
-1.800000e+02 -9.000000e+00   -1.000000e+00  5.055187e+02  3.433194e+01
-1.620000e+02 -9.000000e+00   -1.000000e+00  5.022220e+02  9.508213e+00
-1.440000e+02 -9.000000e+00   -1.000000e+00  4.984751e+02  4.459277e+01
-1.260000e+02 -9.000000e+00   -1.000000e+00  4.970312e+02  1.464005e+01
-1.080000e+02 -9.000000e+00   -1.000000e+00  5.008279e+02  3.558275e+00
-9.000000e+01 -9.000000e+00   -1.000000e+00  5.007593e+02  1.960733e+01
-7.200000e+01 -9.000000e+00   -1.000000e+00  4.987344e+02  1.077097e+01
-5.400000e+01 -9.000000e+00   -1.000000e+00  5.000000e+02  2.725823e+01
-3.600000e+01 -9.000000e+00   -1.000000e+00  5.002656e+02  7.773292e+00
-1.800000e+01 -9.000000e+00   -1.000000e+00  5.002656e+02  3.876087e+00
0.000000e+00 -9.000000e+00   -1.000000e+00  5.000000e+02  2.380311e+00
1.800000e+01 -9.000000e+00   -1.000000e+00  5.000000e+02  1.523458e+01
3.600000e+01 -9.000000e+00   -1.000000e+00  5.000000e+02  1.810397e+01
5.400000e+01 -9.000000e+00   -1.000000e+00  4.966970e+02  3.616179e+00
7.200000e+01 -9.000000e+00   -1.000000e+00  4.966970e+02  2.165346e+00
9.000000e+01 -9.000000e+00   -1.000000e+00  5.007593e+02  1.206940e+00
1.080000e+02 -9.000000e+00   -1.000000e+00  4.972157e+02  4.393974e+00
1.260000e+02 -9.000000e+00   -1.000000e+00  5.005062e+02  2.800585e+00
1.440000e+02 -9.000000e+00   -1.000000e+00  5.025623e+02  2.094601e+01
1.620000e+02 -9.000000e+00   -1.000000e+00  5.020561e+02  1.924389e+01
1.800000e+02 -9.000000e+00   -1.000000e+00  5.055187e+02  3.433194e+01
-1.800000e+02 -1.800000e+01   -1.000000e+00  5.020511e+02  2.100371e+01
-1.620000e+02 -1.800000e+01   -1.000000e+00  5.023075e+02  4.202524e+00
-1.440000e+02 -1.800000e+01   -1.000000e+00  5.002564e+02  6.718078e+00
-1.260000e+02 -1.800000e+01   -1.000000e+00  4.925511e+02  2.952205e+01
-1.080000e+02 -1.800000e+01   -1.000000e+00  4.925511e+02  9.080569e+00
-9.000000e+01 -1.800000e+01   -1.000000e+00  5.000000e+02  1.288730e+01
-7.200000e+01 -1.800000e+01   -1.000000e+00  5.000000e+02  4.327660e+01
-5.400000e+01 -1.800000e+01   -1.000000e+00  5.000000e+02  2.567277e+00
-3.600000e+01 -1.800000e+01   -1.000000e+00  4.997308e+02  6.465090e+00
-1.800000e+01 -1.800000e+01   -1.000000e+00  4.997308e+02  4.596566e+00
0.000000e+00 -1.800000e+01   -1.000000e+00  5.000000e+02  6.587223e+00
1.800000e+01 -1.800000e+01   -1.000000e+00  5.000000e+02  2.015944e+01
3.600000e+01 -1.800000e+01   -1.000000e+00  5.002436e+02  7.167569e+00
5.400000e+01 -1.800000e+01   -1.000000e+00  5.010000e+02  2.976439e+00
7.200000e+01 -1.800000e+01   -1.000000e+00  5.007564e+02  3.381993e+01
9.000000e+01 -1.800000e+01   -1.000000e+00  5.000000e+02  4.319467e+00
1.080000e+02 -1.800000e+01   -1.000000e+00  5.000000e+02  9.937010e+00
1.260000e+02 -1.800000e+01   -1.000000e+00  5.000000e+02  1.536587e+01
1.440000e+02 -1.800000e+01   -1.000000e+00  4.987180e+02  1.442479e+01
1.620000e+02 -1.800000e+01   -1.000000e+00  4.987180e+02  3.163406e+00
1.800000e+02 -1.800000e+01   -1.000000e+00  5.020511e+02  2.100371e+01
-1.800000e+02 -2.700000e+01   -1.000000e+00  5.000000e+02  1.204684e+00
-1.620000e+02 -2.700000e+01   -1.000000e+00  5.000000e+02  2.681861e+01
-1.440000e+02 -2.700000e+01   -1.000000e+00  5.000000e+02  3.539853e+00
-1.260000e+02 -2.700000e+01   -1.000000e+00  4.967393e+02  3.563641e+01
-1.080000e+02 -2.700000e+01   -1.000000e+00  4.967393e+02  1.673581e+01
-9.000000e+01 -2.700000e+01   -1.000000e+00  5.000000e+02  1.761612e+00
-7.200000e+01 -2.700000e+01   -1.000000e+00  4.985602e+02  7.041529e+00
-5.400000e+01 -2.700000e+01   -1.000000e+00  4.976003e+02  2.198068e+00
-3.600000e+01 -2.700000e+01   -1.000000e+00  4.988202e+02  1.057262e+01
-1.800000e+01 -2.700000e+01   -1.000000e+00  4.997801e+02  3.311458e+01
0.000000e+00 -2.700000e+01   -1.000000e+00  5.000000e+02  3.471594e+01
1.800000e+01 -2.700000e+01   -1.000000e+00  5.000000e+02  1.639143e+01
3.600000e+01 -2.700000e+01   -1.000000e+00  5.002600e+02  2.113230e+01
5.400000e+01 -2.700000e+01   -1.000000e+00  5.005201e+02  2.501853e+00
7.200000e+01 -2.700000e+01   -1.000000e+00  4.954605e+02  2.798814e+01
9.000000e+01 -2.700000e+01   -1.000000e+00  4.947206e+02  1.856109e+00
1.080000e+02 -2.700000e+01   -1.000000e+00  4.995201e+02  2.811989e+01
1.260000e+02 -2.700000e+01   -1.000000e+00  5.002400e+02  1.060546e+01
1.440000e+02 -2.700000e+01   -1.000000e+00  5.004799e+02  2.432226e+01
1.620000e+02 -2.700000e+01   -1.000000e+00  5.002400e+02  1.887189e+00
1.800000e+02 -2.700000e+01   -1.000000e+00  5.000000e+02  1.204684e+00
-1.800000e+02 -3.600000e+01   -1.000000e+00  5.000000e+02  4.369181e+00
-1.620000e+02 -3.600000e+01   -1.000000e+00  5.000000e+02  1.212265e+00
-1.440000e+02 -3.600000e+01   -1.000000e+00  5.000000e+02  1.115341e+01
-1.260000e+02 -3.600000e+01   -1.000000e+00  5.018501e+02  1.817726e+01
-1.080000e+02 -3.600000e+01   -1.000000e+00  5.018501e+02  1.065489e+01
-9.000000e+01 -3.600000e+01   -1.000000e+00  5.000000e+02  3.654007e+01
-7.200000e+01 -3.600000e+01   -1.000000e+00  4.960572e+02  1.145077e+01
-5.400000e+01 -3.600000e+01   -1.000000e+00  4.950000e+02  1.613596e+01
-3.600000e+01 -3.600000e+01   -1.000000e+00  4.934644e+02  2.242981e+01
-1.800000e+01 -3.600000e+01   -1.000000e+00  4.945216e+02  1.093626e+01
0.000000e+00 -3.600000e+01   -1.000000e+00  5.000000e+02  1.100930e+01
1.800000e+01 -3.600000e+01   -1.000000e+00  5.000000e+02  3.295504e+01
3.600000e+01 -3.600000e+01   -1.000000e+00  4.992929e+02  8.888736e+00
5.400000e+01 -3.600000e+01   -1.000000e+00  4.995286e+02  2.469537e+01
7.200000e+01 -3.600000e+01   -1.000000e+00  4.963640e+02  1.248932e+01
9.000000e+01 -3.600000e+01   -1.000000e+00  4.960711e+02  1.321656e+01
1.080000e+02 -3.600000e+01   -1.000000e+00  4.999428e+02  1.027859e+00
1.260000e+02 -3.600000e+01   -1.000000e+00  4.983787e+02  1.211718e+01
1.440000e+02 -3.600000e+01   -1.000000e+00  4.986430e+02  2.883237e+00
1.620000e+02 -3.600000e+01   -1.000000e+00  5.002643e+02  7.227685e+00
1.800000e+02 -3.600000e+01   -1.000000e+00  5.000000e+02  4.369181e+00
-1.800000e+02 -4.500000e+01   -1.000000e+00  5.000000e+02  7.017686e+00
-1.620000e+02 -4.500000e+01   -1.000000e+00  5.000000e+02  4.338942e+00
-1.440000e+02 -4.500000e+01   -1.000000e+00  5.000000e+02  4.913951e+01
-1.260000e+02 -4.500000e+01   -1.000000e+00  5.011516e+02  2.955165e+01
-1.080000e+02 -4.500000e+01   -1.000000e+00  5.011516e+02  2.813483e+00
-9.000000e+01 -4.500000e+01   -1.000000e+00  5.000000e+02  2.122689e+00
-7.200000e+01 -4.500000e+01   -1.000000e+00  4.963819e+02  3.235013e+01
-5.400000e+01 -4.500000e+01   -1.000000e+00  4.959213e+02  1.529618e+01
-3.600000e+01 -4.500000e+01   -1.000000e+00  4.947975e+02  7.884266e+00
-1.800000e+01 -4.500000e+01   -1.000000e+00  4.952581e+02  1.564555e+01
0.000000e+00 -4.500000e+01   -1.000000e+00  5.000000e+02  5.292701e+00
1.800000e+01 -4.500000e+01   -1.000000e+00  5.000000e+02  1.406475e+01
3.600000e+01 -4.500000e+01   -1.000000e+00  5.012639e+02  2.264664e+01
5.400000e+01 -4.500000e+01   -1.000000e+00  4.994606e+02  4.581599e+01
7.200000e+01 -4.500000e+01   -1.000000e+00  4.998148e+02  4.128171e+00
9.000000e+01 -4.500000e+01   -1.000000e+00  5.021574e+02  2.773960e+00
1.080000e+02 -4.500000e+01   -1.000000e+00  5.005394e+02  1.239847e+01
1.260000e+02 -4.500000e+01   -1.000000e+00  4.934664e+02  2.454041e+01
1.440000e+02 -4.500000e+01   -1.000000e+00  4.934664e+02  3.280896e+01
1.620000e+02 -4.500000e+01   -1.000000e+00  5.000000e+02  2.843440e+00
1.800000e+02 -4.500000e+01   -1.000000e+00  5.000000e+02  7.017686e+00
-1.800000e+02 -5.400000e+01   -1.000000e+00  5.000000e+02  3.291223e+01
-1.620000e+02 -5.400000e+01   -1.000000e+00  5.000000e+02  3.505456e+00
-1.440000e+02 -5.400000e+01   -1.000000e+00  5.000000e+02  1.294030e+00
-1.260000e+02 -5.400000e+01   -1.000000e+00  5.025000e+02  1.715171e+00
-1.080000e+02 -5.400000e+01   -1.000000e+00  5.025000e+02  7.134354e+00
-9.000000e+01 -5.400000e+01   -1.000000e+00  4.984396e+02  3.780604e+01
-7.200000e+01 -5.400000e+01   -1.000000e+00  4.951021e+02  4.015089e+01
-5.400000e+01 -5.400000e+01   -1.000000e+00  4.961083e+02  4.259131e+01
-3.600000e+01 -5.400000e+01   -1.000000e+00  5.056813e+02  5.280322e+00
-1.800000e+01 -5.400000e+01   -1.000000e+00  5.062355e+02  1.822410e+00
0.000000e+00 -5.400000e+01   -1.000000e+00  5.000000e+02  1.359294e+00
1.800000e+01 -5.400000e+01   -1.000000e+00  5.000000e+02  2.207056e+00
3.600000e+01 -5.400000e+01   -1.000000e+00  5.053917e+02  2.837612e+01
5.400000e+01 -5.400000e+01   -1.000000e+00  5.062417e+02  1.848792e+01
7.200000e+01 -5.400000e+01   -1.000000e+00  5.006271e+02  1.798572e+01
9.000000e+01 -5.400000e+01   -1.000000e+00  4.997771e+02  4.833752e+00
1.080000e+02 -5.400000e+01   -1.000000e+00  5.000000e+02  1.760132e+01
1.260000e+02 -5.400000e+01   -1.000000e+00  4.916146e+02  2.341654e+01
1.440000e+02 -5.400000e+01   -1.000000e+00  4.916146e+02  2.421401e+00
1.620000e+02 -5.400000e+01   -1.000000e+00  5.000000e+02  1.252333e+00
1.800000e+02 -5.400000e+01   -1.000000e+00  5.000000e+02  3.291223e+01
-1.800000e+02 -6.300000e+01   -1.000000e+00  5.000000e+02  4.038520e+01
-1.620000e+02 -6.300000e+01   -1.000000e+00  5.000000e+02  4.090924e+01
-1.440000e+02 -6.300000e+01   -1.000000e+00  5.000000e+02  1.407908e+00
-1.260000e+02 -6.300000e+01   -1.000000e+00  5.020772e+02  6.579935e+00
-1.080000e+02 -6.300000e+01   -1.000000e+00  5.041911e+02  9.043505e+00
-9.000000e+01 -6.300000e+01   -1.000000e+00  5.009391e+02  2.112247e+01
-7.200000e+01 -6.300000e+01   -1.000000e+00  4.963619e+02  8.229831e+00
-5.400000e+01 -6.300000e+01   -1.000000e+00  4.975366e+02  7.959883e+00
-3.600000e+01 -6.300000e+01   -1.000000e+00  5.057926e+02  2.265682e+01
-1.800000e+01 -6.300000e+01   -1.000000e+00  5.055812e+02  2.382147e+01
0.000000e+00 -6.300000e+01   -1.000000e+00  4.997886e+02  1.610821e+00
1.800000e+01 -6.300000e+01   -1.000000e+00  5.000000e+02  1.541819e+00
3.600000e+01 -6.300000e+01   -1.000000e+00  5.067114e+02  1.197056e+01
5.400000e+01 -6.300000e+01   -1.000000e+00  5.110406e+02  2.653502e+01
7.200000e+01 -6.300000e+01   -1.000000e+00  5.004471e+02  2.850061e+01
9.000000e+01 -6.300000e+01   -1.000000e+00  4.948495e+02  4.105311e+01
1.080000e+02 -6.300000e+01   -1.000000e+00  4.987317e+02  5.142429e+00
1.260000e+02 -6.300000e+01   -1.000000e+00  4.972277e+02  6.663071e+00
1.440000e+02 -6.300000e+01   -1.000000e+00  4.972277e+02  1.061025e+01
1.620000e+02 -6.300000e+01   -1.000000e+00  5.000000e+02  1.768774e+01
1.800000e+02 -6.300000e+01   -1.000000e+00  5.000000e+02  4.038520e+01
-1.800000e+02 -7.200000e+01   -1.000000e+00  5.013261e+02  3.415579e+00
-1.620000e+02 -7.200000e+01   -1.000000e+00  5.054939e+02  1.957441e+01
-1.440000e+02 -7.200000e+01   -1.000000e+00  5.013261e+02  6.052674e+00
-1.260000e+02 -7.200000e+01   -1.000000e+00  4.986583e+02  3.864083e+01
-1.080000e+02 -7.200000e+01   -1.000000e+00  5.019533e+02  3.348467e+01
-9.000000e+01 -7.200000e+01   -1.000000e+00  5.009378e+02  3.470328e+00
-7.200000e+01 -7.200000e+01   -1.000000e+00  5.001583e+02  4.319140e+01
-5.400000e+01 -7.200000e+01   -1.000000e+00  5.006211e+02  4.930719e+01
-3.600000e+01 -7.200000e+01   -1.000000e+00  4.987578e+02  1.995599e+01
-1.800000e+01 -7.200000e+01   -1.000000e+00  4.988261e+02  1.730790e+01
0.000000e+00 -7.200000e+01   -1.000000e+00  5.034784e+02  1.702646e+01
1.800000e+01 -7.200000e+01   -1.000000e+00  5.032206e+02  1.797228e+00
3.600000e+01 -7.200000e+01   -1.000000e+00  5.041583e+02  3.442875e+00
5.400000e+01 -7.200000e+01   -1.000000e+00  5.043478e+02  4.858824e+00
7.200000e+01 -7.200000e+01   -1.000000e+00  4.947206e+02  6.450142e+00
9.000000e+01 -7.200000e+01   -1.000000e+00  4.951306e+02  1.947642e+01
1.080000e+02 -7.200000e+01   -1.000000e+00  5.030622e+02  3.117342e+01
1.260000e+02 -7.200000e+01   -1.000000e+00  5.024317e+02  2.767945e+01
1.440000e+02 -7.200000e+01   -1.000000e+00  4.995900e+02  4.620840e+00
1.620000e+02 -7.200000e+01   -1.000000e+00  4.988633e+02  1.405380e+00
1.800000e+02 -7.200000e+01   -1.000000e+00  5.013261e+02  3.415579e+00
-1.800000e+02 -8.100000e+01   -1.000000e+00  5.026196e+02  2.717992e+01
-1.620000e+02 -8.100000e+01   -1.000000e+00  5.108525e+02  4.887524e+00
-1.440000e+02 -8.100000e+01   -1.000000e+00  5.026196e+02  4.305885e+00
-1.260000e+02 -8.100000e+01   -1.000000e+00  4.955093e+02  4.759260e+01
-1.080000e+02 -8.100000e+01   -1.000000e+00  4.958835e+02  3.304939e+00
-9.000000e+01 -8.100000e+01   -1.000000e+00  4.928866e+02  1.594241e+01
-7.200000e+01 -8.100000e+01   -1.000000e+00  4.938649e+02  1.374381e+01
-5.400000e+01 -8.100000e+01   -1.000000e+00  4.945917e+02  1.079709e+01
-3.600000e+01 -8.100000e+01   -1.000000e+00  4.992454e+02  1.175512e+01
-1.800000e+01 -8.100000e+01   -1.000000e+00  5.021320e+02  4.922569e+01
0.000000e+00 -8.100000e+01   -1.000000e+00  5.078618e+02  1.250703e+01
1.800000e+01 -8.100000e+01   -1.000000e+00  5.061103e+02  3.937676e+01
3.600000e+01 -8.100000e+01   -1.000000e+00  4.981165e+02  8.684809e+00
5.400000e+01 -8.100000e+01   -1.000000e+00  5.008804e+02  1.031068e+01
7.200000e+01 -8.100000e+01   -1.000000e+00  5.011320e+02  4.256516e+01
9.000000e+01 -8.100000e+01   -1.000000e+00  5.058742e+02  7.828066e+00
1.080000e+02 -8.100000e+01   -1.000000e+00  5.108618e+02  9.703676e+00
1.260000e+02 -8.100000e+01   -1.000000e+00  5.011227e+02  4.978641e+01
1.440000e+02 -8.100000e+01   -1.000000e+00  4.955093e+02  3.647963e+01
1.620000e+02 -8.100000e+01   -1.000000e+00  4.977546e+02  1.561263e+00
1.800000e+02 -8.100000e+01   -1.000000e+00  5.026196e+02  2.717992e+01