VARIABLES="Lon", "Lat", "Cutoff Rigidity", "Injected Particle Number"
ZONE I=20, J=21, DATAPACKING=POINT
0.000000e+00 9.000000e+01  -1.000000e+00  5.000000e+02 
1.800000e+01 9.000000e+01  -1.000000e+00  5.000000e+02 
3.600000e+01 9.000000e+01  -1.000000e+00  5.000000e+02 
5.400000e+01 9.000000e+01  -1.000000e+00  5.000000e+02 
7.200000e+01 9.000000e+01  -1.000000e+00  5.000000e+02 
9.000000e+01 9.000000e+01  -1.000000e+00  4.995000e+02 
1.080000e+02 9.000000e+01  -1.000000e+00  5.070000e+02 
1.260000e+02 9.000000e+01  -1.000000e+00  5.085000e+02 
1.440000e+02 9.000000e+01  -1.000000e+00  5.035000e+02 
1.620000e+02 9.000000e+01  -1.000000e+00  5.030000e+02 
1.800000e+02 9.000000e+01  -1.000000e+00  4.975000e+02 
1.980000e+02 9.000000e+01  -1.000000e+00  4.910000e+02 
2.160000e+02 9.000000e+01  -1.000000e+00  4.960000e+02 
2.340000e+02 9.000000e+01  -1.000000e+00  4.930000e+02 
2.520000e+02 9.000000e+01  -1.000000e+00  4.895000e+02 
2.700000e+02 9.000000e+01  -1.000000e+00  4.990000e+02 
2.880000e+02 9.000000e+01  -1.000000e+00  5.005000e+02 
3.060000e+02 9.000000e+01  -1.000000e+00  5.000000e+02 
3.240000e+02 9.000000e+01  -1.000000e+00  5.000000e+02 
3.420000e+02 9.000000e+01  -1.000000e+00  5.000000e+02 
0.000000e+00 8.100000e+01  -1.000000e+00  4.962577e+02 
1.800000e+01 8.100000e+01  -1.000000e+00  4.973804e+02 
3.600000e+01 8.100000e+01  -1.000000e+00  5.104783e+02 
5.400000e+01 8.100000e+01  -1.000000e+00  5.078587e+02 
7.200000e+01 8.100000e+01  -1.000000e+00  5.130979e+02 
9.000000e+01 8.100000e+01  -1.000000e+00  5.081072e+02 
1.080000e+02 8.100000e+01  -1.000000e+00  5.002639e+02 
1.260000e+02 8.100000e+01  -1.000000e+00  5.010155e+02 
1.440000e+02 8.100000e+01  -1.000000e+00  5.008804e+02 
1.620000e+02 8.100000e+01  -1.000000e+00  5.037485e+02 
1.800000e+02 8.100000e+01  -1.000000e+00  5.031134e+02 
1.980000e+02 8.100000e+01  -1.000000e+00  5.003556e+02 
2.160000e+02 8.100000e+01  -1.000000e+00  5.012392e+02 
2.340000e+02 8.100000e+01  -1.000000e+00  4.986134e+02 
2.520000e+02 8.100000e+01  -1.000000e+00  4.973587e+02 
2.700000e+02 8.100000e+01  -1.000000e+00  5.004969e+02 
2.880000e+02 8.100000e+01  -1.000000e+00  5.031196e+02 
3.060000e+02 8.100000e+01  -1.000000e+00  4.962577e+02 
3.240000e+02 8.100000e+01  -1.000000e+00  4.906444e+02 
3.420000e+02 8.100000e+01  -1.000000e+00  5.026196e+02 
0.000000e+00 7.200000e+01  -1.000000e+00  4.981055e+02 
1.800000e+01 7.200000e+01  -1.000000e+00  4.986739e+02 
3.600000e+01 7.200000e+01  -1.000000e+00  5.053045e+02 
5.400000e+01 7.200000e+01  -1.000000e+00  5.042889e+02 
7.200000e+01 7.200000e+01  -1.000000e+00  5.050778e+02 
9.000000e+01 7.200000e+01  -1.000000e+00  5.023045e+02 
1.080000e+02 7.200000e+01  -1.000000e+00  4.942733e+02 
1.260000e+02 7.200000e+01  -1.000000e+00  4.944628e+02 
1.440000e+02 7.200000e+01  -1.000000e+00  5.006211e+02 
1.620000e+02 7.200000e+01  -1.000000e+00  5.055528e+02 
1.800000e+02 7.200000e+01  -1.000000e+00  5.053106e+02 
1.980000e+02 7.200000e+01  -1.000000e+00  5.013261e+02 
2.160000e+02 7.200000e+01  -1.000000e+00  4.983417e+02 
2.340000e+02 7.200000e+01  -1.000000e+00  4.967733e+02 
2.520000e+02 7.200000e+01  -1.000000e+00  4.987578e+02 
2.700000e+02 7.200000e+01  -1.000000e+00  4.997578e+02 
2.880000e+02 7.200000e+01  -1.000000e+00  5.015156e+02 
3.060000e+02 7.200000e+01  -1.000000e+00  5.009005e+02 
3.240000e+02 7.200000e+01  -1.000000e+00  4.980589e+02 
3.420000e+02 7.200000e+01  -1.000000e+00  5.013261e+02 
0.000000e+00 6.300000e+01  -1.000000e+00  5.000000e+02 
1.800000e+01 6.300000e+01  -1.000000e+00  5.000000e+02 
3.600000e+01 6.300000e+01  -1.000000e+00  5.000000e+02 
5.400000e+01 6.300000e+01  -1.000000e+00  5.062723e+02 
7.200000e+01 6.300000e+01  -1.000000e+00  5.050040e+02 
9.000000e+01 6.300000e+01  -1.000000e+00  4.987317e+02 
1.080000e+02 6.300000e+01  -1.000000e+00  4.966178e+02 
1.260000e+02 6.300000e+01  -1.000000e+00  4.980609e+02 
1.440000e+02 6.300000e+01  -1.000000e+00  5.004228e+02 
1.620000e+02 6.300000e+01  -1.000000e+00  5.013049e+02 
1.800000e+02 6.300000e+01  -1.000000e+00  5.023252e+02 
1.980000e+02 6.300000e+01  -1.000000e+00  5.000000e+02 
2.160000e+02 6.300000e+01  -1.000000e+00  4.992520e+02 
2.340000e+02 6.300000e+01  -1.000000e+00  4.973862e+02 
2.520000e+02 6.300000e+01  -1.000000e+00  4.930935e+02 
2.700000e+02 6.300000e+01  -1.000000e+00  4.949594e+02 
2.880000e+02 6.300000e+01  -1.000000e+00  5.000000e+02 
3.060000e+02 6.300000e+01  -1.000000e+00  5.001708e+02 
3.240000e+02 6.300000e+01  -1.000000e+00  5.001708e+02 
3.420000e+02 6.300000e+01  -1.000000e+00  5.000000e+02 
0.000000e+00 5.400000e+01  -1.000000e+00  5.000000e+02 
1.800000e+01 5.400000e+01  -1.000000e+00  5.000000e+02 
3.600000e+01 5.400000e+01  -1.000000e+00  5.000000e+02 
5.400000e+01 5.400000e+01  -1.000000e+00  5.010792e+02 
7.200000e+01 5.400000e+01  -1.000000e+00  5.010792e+02 
9.000000e+01 5.400000e+01  -1.000000e+00  5.000000e+02 
1.080000e+02 5.400000e+01  -1.000000e+00  5.000000e+02 
1.260000e+02 5.400000e+01  -1.000000e+00  4.980667e+02 
1.440000e+02 5.400000e+01  -1.000000e+00  4.952896e+02 
1.620000e+02 5.400000e+01  -1.000000e+00  4.972229e+02 
1.800000e+02 5.400000e+01  -1.000000e+00  5.000000e+02 
1.980000e+02 5.400000e+01  -1.000000e+00  5.000000e+02 
2.160000e+02 5.400000e+01  -1.000000e+00  4.956271e+02 
2.340000e+02 5.400000e+01  -1.000000e+00  4.995000e+02 
2.520000e+02 5.400000e+01  -1.000000e+00  5.003062e+02 
2.700000e+02 5.400000e+01  -1.000000e+00  4.964333e+02 
2.880000e+02 5.400000e+01  -1.000000e+00  5.000000e+02 
3.060000e+02 5.400000e+01  -1.000000e+00  5.050353e+02 
3.240000e+02 5.400000e+01  -1.000000e+00  5.050353e+02 
3.420000e+02 5.400000e+01  -1.000000e+00  5.000000e+02 
0.000000e+00 4.500000e+01  -1.000000e+00  4.997303e+02 
1.800000e+01 4.500000e+01  -1.000000e+00  4.997303e+02 
3.600000e+01 4.500000e+01  -1.000000e+00  5.000000e+02 
5.400000e+01 4.500000e+01  -1.000000e+00  5.040173e+02 
7.200000e+01 4.500000e+01  -1.000000e+00  5.040173e+02 
9.000000e+01 4.500000e+01  -1.000000e+00  5.000000e+02 
1.080000e+02 4.500000e+01  -1.000000e+00  4.994606e+02 
1.260000e+02 4.500000e+01  -1.000000e+00  4.985451e+02 
1.440000e+02 4.500000e+01  -1.000000e+00  4.971632e+02 
1.620000e+02 4.500000e+01  -1.000000e+00  4.980787e+02 
1.800000e+02 4.500000e+01  -1.000000e+00  5.000000e+02 
1.980000e+02 4.500000e+01  -1.000000e+00  5.000000e+02 
2.160000e+02 4.500000e+01  -1.000000e+00  4.967025e+02 
2.340000e+02 4.500000e+01  -1.000000e+00  5.008484e+02 
2.520000e+02 4.500000e+01  -1.000000e+00  5.001007e+02 
2.700000e+02 4.500000e+01  -1.000000e+00  4.962245e+02 
2.880000e+02 4.500000e+01  -1.000000e+00  5.002697e+02 
3.060000e+02 4.500000e+01  -1.000000e+00  5.079942e+02 
3.240000e+02 4.500000e+01  -1.000000e+00  5.079942e+02 
3.420000e+02 4.500000e+01  -1.000000e+00  5.000000e+02 
0.000000e+00 3.600000e+01  -1.000000e+00  4.870781e+02 
1.800000e+01 3.600000e+01  -1.000000e+00  4.870781e+02 
3.600000e+01 3.600000e+01  -1.000000e+00  5.000000e+02 
5.400000e+01 3.600000e+01  -1.000000e+00  5.071855e+02 
7.200000e+01 3.600000e+01  -1.000000e+00  5.071855e+02 
9.000000e+01 3.600000e+01  -1.000000e+00  5.000000e+02 
1.080000e+02 3.600000e+01  -1.000000e+00  4.979428e+02 
1.260000e+02 3.600000e+01  -1.000000e+00  5.057001e+02 
1.440000e+02 3.600000e+01  -1.000000e+00  5.120432e+02 
1.620000e+02 3.600000e+01  -1.000000e+00  5.042859e+02 
1.800000e+02 3.600000e+01  -1.000000e+00  5.000000e+02 
1.980000e+02 3.600000e+01  -1.000000e+00  5.000000e+02 
2.160000e+02 3.600000e+01  -1.000000e+00  4.993570e+02 
2.340000e+02 3.600000e+01  -1.000000e+00  4.993570e+02 
2.520000e+02 3.600000e+01  -1.000000e+00  4.943501e+02 
2.700000e+02 3.600000e+01  -1.000000e+00  4.940572e+02 
2.880000e+02 3.600000e+01  -1.000000e+00  4.997071e+02 
3.060000e+02 3.600000e+01  -1.000000e+00  5.031499e+02 
3.240000e+02 3.600000e+01  -1.000000e+00  5.028856e+02 
3.420000e+02 3.600000e+01  -1.000000e+00  4.997357e+02 
0.000000e+00 2.700000e+01  -1.000000e+00  4.866610e+02 
1.800000e+01 2.700000e+01  -1.000000e+00  4.887412e+02 
3.600000e+01 2.700000e+01  -1.000000e+00  5.010401e+02 
5.400000e+01 2.700000e+01  -1.000000e+00  5.038202e+02 
7.200000e+01 2.700000e+01  -1.000000e+00  5.048603e+02 
9.000000e+01 2.700000e+01  -1.000000e+00  5.000000e+02 
1.080000e+02 2.700000e+01  -1.000000e+00  4.985602e+02 
1.260000e+02 2.700000e+01  -1.000000e+00  5.043195e+02 
1.440000e+02 2.700000e+01  -1.000000e+00  5.082588e+02 
1.620000e+02 2.700000e+01  -1.000000e+00  5.024994e+02 
1.800000e+02 2.700000e+01  -1.000000e+00  5.000000e+02 
1.980000e+02 2.700000e+01  -1.000000e+00  5.000000e+02 
2.160000e+02 2.700000e+01  -1.000000e+00  4.977801e+02 
2.340000e+02 2.700000e+01  -1.000000e+00  4.967400e+02 
2.520000e+02 2.700000e+01  -1.000000e+00  4.970401e+02 
2.700000e+02 2.700000e+01  -1.000000e+00  4.976003e+02 
2.880000e+02 2.700000e+01  -1.000000e+00  4.995201e+02 
3.060000e+02 2.700000e+01  -1.000000e+00  4.996798e+02 
3.240000e+02 2.700000e+01  -1.000000e+00  5.025602e+02 
3.420000e+02 2.700000e+01  -1.000000e+00  5.028803e+02 
0.000000e+00 1.800000e+01  -1.000000e+00  5.006023e+02 
1.800000e+01 1.800000e+01  -1.000000e+00  5.033203e+02 
3.600000e+01 1.800000e+01  -1.000000e+00  5.017436e+02 
5.400000e+01 1.800000e+01  -1.000000e+00  5.031925e+02 
7.200000e+01 1.800000e+01  -1.000000e+00  5.041669e+02 
9.000000e+01 1.800000e+01  -1.000000e+00  5.000000e+02 
1.080000e+02 1.800000e+01  -1.000000e+00  5.000000e+02 
1.260000e+02 1.800000e+01  -1.000000e+00  5.000000e+02 
1.440000e+02 1.800000e+01  -1.000000e+00  5.006023e+02 
1.620000e+02 1.800000e+01  -1.000000e+00  5.006023e+02 
1.800000e+02 1.800000e+01  -1.000000e+00  5.000000e+02 
1.980000e+02 1.800000e+01  -1.000000e+00  5.000000e+02 
2.160000e+02 1.800000e+01  -1.000000e+00  4.992692e+02 
2.340000e+02 1.800000e+01  -1.000000e+00  4.970128e+02 
2.520000e+02 1.800000e+01  -1.000000e+00  4.977436e+02 
2.700000e+02 1.800000e+01  -1.000000e+00  4.992308e+02 
2.880000e+02 1.800000e+01  -1.000000e+00  4.994872e+02 
3.060000e+02 1.800000e+01  -1.000000e+00  4.992820e+02 
3.240000e+02 1.800000e+01  -1.000000e+00  5.022052e+02 
3.420000e+02 1.800000e+01  -1.000000e+00  5.031797e+02 
0.000000e+00 9.000000e+00  -1.000000e+00  5.012095e+02 
1.800000e+01 9.000000e+00  -1.000000e+00  5.042282e+02 
3.600000e+01 9.000000e+00  -1.000000e+00  5.055499e+02 
5.400000e+01 9.000000e+00  -1.000000e+00  5.030249e+02 
7.200000e+01 9.000000e+00  -1.000000e+00  5.020125e+02 
9.000000e+01 9.000000e+00  -1.000000e+00  5.022780e+02 
1.080000e+02 9.000000e+00  -1.000000e+00  4.997469e+02 
1.260000e+02 9.000000e+00  -1.000000e+00  5.000000e+02 
1.440000e+02 9.000000e+00  -1.000000e+00  4.981721e+02 
1.620000e+02 9.000000e+00  -1.000000e+00  4.981721e+02 
1.800000e+02 9.000000e+00  -1.000000e+00  5.000000e+02 
1.980000e+02 9.000000e+00  -1.000000e+00  5.000000e+02 
2.160000e+02 9.000000e+00  -1.000000e+00  5.000000e+02 
2.340000e+02 9.000000e+00  -1.000000e+00  5.040810e+02 
2.520000e+02 9.000000e+00  -1.000000e+00  5.040810e+02 
2.700000e+02 9.000000e+00  -1.000000e+00  4.979938e+02 
2.880000e+02 9.000000e+00  -1.000000e+00  4.952033e+02 
3.060000e+02 9.000000e+00  -1.000000e+00  5.002469e+02 
3.240000e+02 9.000000e+00  -1.000000e+00  5.055623e+02 
3.420000e+02 9.000000e+00  -1.000000e+00  5.015125e+02 
0.000000e+00 3.508355e-15  -1.000000e+00  4.990000e+02 
1.800000e+01 3.508355e-15  -1.000000e+00  5.012500e+02 
3.600000e+01 3.508355e-15  -1.000000e+00  5.047500e+02 
5.400000e+01 3.508355e-15  -1.000000e+00  4.987500e+02 
7.200000e+01 3.508355e-15  -1.000000e+00  4.977500e+02 
9.000000e+01 3.508355e-15  -1.000000e+00  5.030000e+02 
1.080000e+02 3.508355e-15  -1.000000e+00  4.970000e+02 
1.260000e+02 3.508355e-15  -1.000000e+00  5.005000e+02 
1.440000e+02 3.508355e-15  -1.000000e+00  4.997500e+02 
1.620000e+02 3.508355e-15  -1.000000e+00  4.992500e+02 
1.800000e+02 3.508355e-15  -1.000000e+00  5.035000e+02 
1.980000e+02 3.508355e-15  -1.000000e+00  5.000000e+02 
2.160000e+02 3.508355e-15  -1.000000e+00  4.982500e+02 
2.340000e+02 3.508355e-15  -1.000000e+00  5.050000e+02 
2.520000e+02 3.508355e-15  -1.000000e+00  5.087500e+02 
2.700000e+02 3.508355e-15  -1.000000e+00  4.995000e+02 
2.880000e+02 3.508355e-15  -1.000000e+00  4.945000e+02 
3.060000e+02 3.508355e-15  -1.000000e+00  5.000000e+02 
3.240000e+02 3.508355e-15  -1.000000e+00  5.060000e+02 
3.420000e+02 3.508355e-15  -1.000000e+00  5.020000e+02 
0.000000e+00 -9.000000e+00  -1.000000e+00  5.000000e+02 
1.800000e+01 -9.000000e+00  -1.000000e+00  5.000000e+02 
3.600000e+01 -9.000000e+00  -1.000000e+00  5.000000e+02 
5.400000e+01 -9.000000e+00  -1.000000e+00  4.966970e+02 
7.200000e+01 -9.000000e+00  -1.000000e+00  4.966970e+02 
9.000000e+01 -9.000000e+00  -1.000000e+00  5.007593e+02 
1.080000e+02 -9.000000e+00  -1.000000e+00  4.972157e+02 
1.260000e+02 -9.000000e+00  -1.000000e+00  5.005062e+02 
1.440000e+02 -9.000000e+00  -1.000000e+00  5.025623e+02 
1.620000e+02 -9.000000e+00  -1.000000e+00  5.020561e+02 
1.800000e+02 -9.000000e+00  -1.000000e+00  5.055187e+02 
1.980000e+02 -9.000000e+00  -1.000000e+00  5.022220e+02 
2.160000e+02 -9.000000e+00  -1.000000e+00  4.984751e+02 
2.340000e+02 -9.000000e+00  -1.000000e+00  4.970312e+02 
2.520000e+02 -9.000000e+00  -1.000000e+00  5.008279e+02 
2.700000e+02 -9.000000e+00  -1.000000e+00  5.007593e+02 
2.880000e+02 -9.000000e+00  -1.000000e+00  4.987344e+02 
3.060000e+02 -9.000000e+00  -1.000000e+00  5.000000e+02 
3.240000e+02 -9.000000e+00  -1.000000e+00  5.002656e+02 
3.420000e+02 -9.000000e+00  -1.000000e+00  5.002656e+02 
0.000000e+00 -1.800000e+01  -1.000000e+00  5.000000e+02 
1.800000e+01 -1.800000e+01  -1.000000e+00  5.000000e+02 
3.600000e+01 -1.800000e+01  -1.000000e+00  5.002436e+02 
5.400000e+01 -1.800000e+01  -1.000000e+00  5.010000e+02 
7.200000e+01 -1.800000e+01  -1.000000e+00  5.007564e+02 
9.000000e+01 -1.800000e+01  -1.000000e+00  5.000000e+02 
1.080000e+02 -1.800000e+01  -1.000000e+00  5.000000e+02 
1.260000e+02 -1.800000e+01  -1.000000e+00  5.000000e+02 
1.440000e+02 -1.800000e+01  -1.000000e+00  4.987180e+02 
1.620000e+02 -1.800000e+01  -1.000000e+00  4.987180e+02 
1.800000e+02 -1.800000e+01  -1.000000e+00  5.020511e+02 
1.980000e+02 -1.800000e+01  -1.000000e+00  5.023075e+02 
2.160000e+02 -1.800000e+01  -1.000000e+00  5.002564e+02 
2.340000e+02 -1.800000e+01  -1.000000e+00  4.925511e+02 
2.520000e+02 -1.800000e+01  -1.000000e+00  4.925511e+02 
2.700000e+02 -1.800000e+01  -1.000000e+00  5.000000e+02 
2.880000e+02 -1.800000e+01  -1.000000e+00  5.000000e+02 
3.060000e+02 -1.800000e+01  -1.000000e+00  5.000000e+02 
3.240000e+02 -1.800000e+01  -1.000000e+00  4.997308e+02 
3.420000e+02 -1.800000e+01  -1.000000e+00  4.997308e+02 
0.000000e+00 -2.700000e+01  -1.000000e+00  5.000000e+02 
1.800000e+01 -2.700000e+01  -1.000000e+00  5.000000e+02 
3.600000e+01 -2.700000e+01  -1.000000e+00  5.002600e+02 
5.400000e+01 -2.700000e+01  -1.000000e+00  5.005201e+02 
7.200000e+01 -2.700000e+01  -1.000000e+00  4.954605e+02 
9.000000e+01 -2.700000e+01  -1.000000e+00  4.947206e+02 
1.080000e+02 -2.700000e+01  -1.000000e+00  4.995201e+02 
1.260000e+02 -2.700000e+01  -1.000000e+00  5.002400e+02 
1.440000e+02 -2.700000e+01  -1.000000e+00  5.004799e+02 
1.620000e+02 -2.700000e+01  -1.000000e+00  5.002400e+02 
1.800000e+02 -2.700000e+01  -1.000000e+00  5.000000e+02 
1.980000e+02 -2.700000e+01  -1.000000e+00  5.000000e+02 
2.160000e+02 -2.700000e+01  -1.000000e+00  5.000000e+02 
2.340000e+02 -2.700000e+01  -1.000000e+00  4.967393e+02 
2.520000e+02 -2.700000e+01  -1.000000e+00  4.967393e+02 
2.700000e+02 -2.700000e+01  -1.000000e+00  5.000000e+02 
2.880000e+02 -2.700000e+01  -1.000000e+00  4.985602e+02 
3.060000e+02 -2.700000e+01  -1.000000e+00  4.976003e+02 
3.240000e+02 -2.700000e+01  -1.000000e+00  4.988202e+02 
3.420000e+02 -2.700000e+01  -1.000000e+00  4.997801e+02 
0.000000e+00 -3.600000e+01  -1.000000e+00  5.000000e+02 
1.800000e+01 -3.600000e+01  -1.000000e+00  5.000000e+02 
3.600000e+01 -3.600000e+01  -1.000000e+00  4.992929e+02 
5.400000e+01 -3.600000e+01  -1.000000e+00  4.995286e+02 
7.200000e+01 -3.600000e+01  -1.000000e+00  4.963640e+02 
9.000000e+01 -3.600000e+01  -1.000000e+00  4.960711e+02 
1.080000e+02 -3.600000e+01  -1.000000e+00  4.999428e+02 
1.260000e+02 -3.600000e+01  -1.000000e+00  4.983787e+02 
1.440000e+02 -3.600000e+01  -1.000000e+00  4.986430e+02 
1.620000e+02 -3.600000e+01  -1.000000e+00  5.002643e+02 
1.800000e+02 -3.600000e+01  -1.000000e+00  5.000000e+02 
1.980000e+02 -3.600000e+01  -1.000000e+00  5.000000e+02 
2.160000e+02 -3.600000e+01  -1.000000e+00  5.000000e+02 
2.340000e+02 -3.600000e+01  -1.000000e+00  5.018501e+02 
2.520000e+02 -3.600000e+01  -1.000000e+00  5.018501e+02 
2.700000e+02 -3.600000e+01  -1.000000e+00  5.000000e+02 
2.880000e+02 -3.600000e+01  -1.000000e+00  4.960572e+02 
3.060000e+02 -3.600000e+01  -1.000000e+00  4.950000e+02 
3.240000e+02 -3.600000e+01  -1.000000e+00  4.934644e+02 
3.420000e+02 -3.600000e+01  -1.000000e+00  4.945216e+02 
0.000000e+00 -4.500000e+01  -1.000000e+00  5.000000e+02 
1.800000e+01 -4.500000e+01  -1.000000e+00  5.000000e+02 
3.600000e+01 -4.500000e+01  -1.000000e+00  5.012639e+02 
5.400000e+01 -4.500000e+01  -1.000000e+00  4.994606e+02 
7.200000e+01 -4.500000e+01  -1.000000e+00  4.998148e+02 
9.000000e+01 -4.500000e+01  -1.000000e+00  5.021574e+02 
1.080000e+02 -4.500000e+01  -1.000000e+00  5.005394e+02 
1.260000e+02 -4.500000e+01  -1.000000e+00  4.934664e+02 
1.440000e+02 -4.500000e+01  -1.000000e+00  4.934664e+02 
1.620000e+02 -4.500000e+01  -1.000000e+00  5.000000e+02 
1.800000e+02 -4.500000e+01  -1.000000e+00  5.000000e+02 
1.980000e+02 -4.500000e+01  -1.000000e+00  5.000000e+02 
2.160000e+02 -4.500000e+01  -1.000000e+00  5.000000e+02 
2.340000e+02 -4.500000e+01  -1.000000e+00  5.011516e+02 
2.520000e+02 -4.500000e+01  -1.000000e+00  5.011516e+02 
2.700000e+02 -4.500000e+01  -1.000000e+00  5.000000e+02 
2.880000e+02 -4.500000e+01  -1.000000e+00  4.963819e+02 
3.060000e+02 -4.500000e+01  -1.000000e+00  4.959213e+02 
3.240000e+02 -4.500000e+01  -1.000000e+00  4.947975e+02 
3.420000e+02 -4.500000e+01  -1.000000e+00  4.952581e+02 
0.000000e+00 -5.400000e+01  -1.000000e+00  5.000000e+02 
1.800000e+01 -5.400000e+01  -1.000000e+00  5.000000e+02 
3.600000e+01 -5.400000e+01  -1.000000e+00  5.053917e+02 
5.400000e+01 -5.400000e+01  -1.000000e+00  5.062417e+02 
7.200000e+01 -5.400000e+01  -1.000000e+00  5.006271e+02 
9.000000e+01 -5.400000e+01  -1.000000e+00  4.997771e+02 
1.080000e+02 -5.400000e+01  -1.000000e+00  5.000000e+02 
1.260000e+02 -5.400000e+01  -1.000000e+00  4.916146e+02 
1.440000e+02 -5.400000e+01  -1.000000e+00  4.916146e+02 
1.620000e+02 -5.400000e+01  -1.000000e+00  5.000000e+02 
1.800000e+02 -5.400000e+01  -1.000000e+00  5.000000e+02 
1.980000e+02 -5.400000e+01  -1.000000e+00  5.000000e+02 
2.160000e+02 -5.400000e+01  -1.000000e+00  5.000000e+02 
2.340000e+02 -5.400000e+01  -1.000000e+00  5.025000e+02 
2.520000e+02 -5.400000e+01  -1.000000e+00  5.025000e+02 
2.700000e+02 -5.400000e+01  -1.000000e+00  4.984396e+02 
2.880000e+02 -5.400000e+01  -1.000000e+00  4.951021e+02 
3.060000e+02 -5.400000e+01  -1.000000e+00  4.961083e+02 
3.240000e+02 -5.400000e+01  -1.000000e+00  5.056813e+02 
3.420000e+02 -5.400000e+01  -1.000000e+00  5.062355e+02 
0.000000e+00 -6.300000e+01  -1.000000e+00  4.997886e+02 
1.800000e+01 -6.300000e+01  -1.000000e+00  5.000000e+02 
3.600000e+01 -6.300000e+01  -1.000000e+00  5.067114e+02 
5.400000e+01 -6.300000e+01  -1.000000e+00  5.110406e+02 
7.200000e+01 -6.300000e+01  -1.000000e+00  5.004471e+02 
9.000000e+01 -6.300000e+01  -1.000000e+00  4.948495e+02 
1.080000e+02 -6.300000e+01  -1.000000e+00  4.987317e+02 
1.260000e+02 -6.300000e+01  -1.000000e+00  4.972277e+02 
1.440000e+02 -6.300000e+01  -1.000000e+00  4.972277e+02 
1.620000e+02 -6.300000e+01  -1.000000e+00  5.000000e+02 
1.800000e+02 -6.300000e+01  -1.000000e+00  5.000000e+02 
1.980000e+02 -6.300000e+01  -1.000000e+00  5.000000e+02 
2.160000e+02 -6.300000e+01  -1.000000e+00  5.000000e+02 
2.340000e+02 -6.300000e+01  -1.000000e+00  5.020772e+02 
2.520000e+02 -6.300000e+01  -1.000000e+00  5.041911e+02 
2.700000e+02 -6.300000e+01  -1.000000e+00  5.009391e+02 
2.880000e+02 -6.300000e+01  -1.000000e+00  4.963619e+02 
3.060000e+02 -6.300000e+01  -1.000000e+00  4.975366e+02 
3.240000e+02 -6.300000e+01  -1.000000e+00  5.057926e+02 
3.420000e+02 -6.300000e+01  -1.000000e+00  5.055812e+02 
0.000000e+00 -7.200000e+01  -1.000000e+00  5.034784e+02 
1.800000e+01 -7.200000e+01  -1.000000e+00  5.032206e+02 
3.600000e+01 -7.200000e+01  -1.000000e+00  5.041583e+02 
5.400000e+01 -7.200000e+01  -1.000000e+00  5.043478e+02 
7.200000e+01 -7.200000e+01  -1.000000e+00  4.947206e+02 
9.000000e+01 -7.200000e+01  -1.000000e+00  4.951306e+02 
1.080000e+02 -7.200000e+01  -1.000000e+00  5.030622e+02 
1.260000e+02 -7.200000e+01  -1.000000e+00  5.024317e+02 
1.440000e+02 -7.200000e+01  -1.000000e+00  4.995900e+02 
1.620000e+02 -7.200000e+01  -1.000000e+00  4.988633e+02 
1.800000e+02 -7.200000e+01  -1.000000e+00  5.013261e+02 
1.980000e+02 -7.200000e+01  -1.000000e+00  5.054939e+02 
2.160000e+02 -7.200000e+01  -1.000000e+00  5.013261e+02 
2.340000e+02 -7.200000e+01  -1.000000e+00  4.986583e+02 
2.520000e+02 -7.200000e+01  -1.000000e+00  5.019533e+02 
2.700000e+02 -7.200000e+01  -1.000000e+00  5.009378e+02 
2.880000e+02 -7.200000e+01  -1.000000e+00  5.001583e+02 
3.060000e+02 -7.200000e+01  -1.000000e+00  5.006211e+02 
3.240000e+02 -7.200000e+01  -1.000000e+00  4.987578e+02 
3.420000e+02 -7.200000e+01  -1.000000e+00  4.988261e+02 
0.000000e+00 -8.100000e+01  -1.000000e+00  5.078618e+02 
1.800000e+01 -8.100000e+01  -1.000000e+00  5.061103e+02 
3.600000e+01 -8.100000e+01  -1.000000e+00  4.981165e+02 
5.400000e+01 -8.100000e+01  -1.000000e+00  5.008804e+02 
7.200000e+01 -8.100000e+01  -1.000000e+00  5.011320e+02 
9.000000e+01 -8.100000e+01  -1.000000e+00  5.058742e+02 
1.080000e+02 -8.100000e+01  -1.000000e+00  5.108618e+02 
1.260000e+02 -8.100000e+01  -1.000000e+00  5.011227e+02 
1.440000e+02 -8.100000e+01  -1.000000e+00  4.955093e+02 
1.620000e+02 -8.100000e+01  -1.000000e+00  4.977546e+02 
1.800000e+02 -8.100000e+01  -1.000000e+00  5.026196e+02 
1.980000e+02 -8.100000e+01  -1.000000e+00  5.108525e+02 
2.160000e+02 -8.100000e+01  -1.000000e+00  5.026196e+02 
2.340000e+02 -8.100000e+01  -1.000000e+00  4.955093e+02 
2.520000e+02 -8.100000e+01  -1.000000e+00  4.958835e+02 
2.700000e+02 -8.100000e+01  -1.000000e+00  4.928866e+02 
2.880000e+02 -8.100000e+01  -1.000000e+00  4.938649e+02 
3.060000e+02 -8.100000e+01  -1.000000e+00  4.945917e+02 
3.240000e+02 -8.100000e+01  -1.000000e+00  4.992454e+02 
3.420000e+02 -8.100000e+01  -1.000000e+00  5.021320e+02 
0.000000e+00 -9.000000e+01  -1.000000e+00  5.015000e+02 
1.800000e+01 -9.000000e+01  -1.000000e+00  4.990000e+02 
3.600000e+01 -9.000000e+01  -1.000000e+00  4.940000e+02 
5.400000e+01 -9.000000e+01  -1.000000e+00  5.035000e+02 
7.200000e+01 -9.000000e+01  -1.000000e+00  5.045000e+02 
9.000000e+01 -9.000000e+01  -1.000000e+00  5.055000e+02 
1.080000e+02 -9.000000e+01  -1.000000e+00  5.045000e+02 
1.260000e+02 -9.000000e+01  -1.000000e+00  5.000000e+02 
1.440000e+02 -9.000000e+01  -1.000000e+00  5.000000e+02 
1.620000e+02 -9.000000e+01  -1.000000e+00  5.000000e+02 
1.800000e+02 -9.000000e+01  -1.000000e+00  5.000000e+02 
1.980000e+02 -9.000000e+01  -1.000000e+00  5.000000e+02 
2.160000e+02 -9.000000e+01  -1.000000e+00  5.000000e+02 
2.340000e+02 -9.000000e+01  -1.000000e+00  5.000000e+02 
2.520000e+02 -9.000000e+01  -1.000000e+00  5.000000e+02 
2.700000e+02 -9.000000e+01  -1.000000e+00  4.985000e+02 
2.880000e+02 -9.000000e+01  -1.000000e+00  4.890000e+02 
3.060000e+02 -9.000000e+01  -1.000000e+00  4.785000e+02 
3.240000e+02 -9.000000e+01  -1.000000e+00  4.970000e+02 
3.420000e+02 -9.000000e+01  -1.000000e+00  5.055000e+02 
