VARIABLES="x", "y", "z", "spec", "Speed"
ZONE T="Trajectory=0" F=POINT
2.378017e+03  -9.999966e+07  -7.369243e+03  0  1.004428e+03
1.955137e+04  -1.000493e+08  2.324056e+04  0  7.064286e+04
6.010381e+04  -1.002219e+08  1.371938e+05  0  1.575961e+05
9.564105e+04  -1.005110e+08  3.440501e+05  0  2.417927e+05
9.957645e+04  -1.009046e+08  6.484363e+05  0  3.220578e+05
4.928407e+04  -1.013885e+08  1.050024e+06  0  3.979677e+05
-7.282103e+04  -1.019480e+08  1.544412e+06  0  4.696348e+05
-2.806485e+05  -1.025687e+08  2.125925e+06  0  5.373781e+05
-5.838355e+05  -1.032366e+08  2.785793e+06  0  6.001825e+05
-9.882896e+05  -1.039400e+08  3.513263e+06  0  6.586310e+05
-1.499065e+06  -1.046687e+08  4.298382e+06  0  7.141286e+05
-2.122258e+06  -1.054126e+08  5.132833e+06  0  7.677845e+05
-2.862459e+06  -1.061631e+08  6.008485e+06  0  8.196544e+05
-3.722170e+06  -1.069075e+08  6.916245e+06  0  8.676076e+05
-4.698771e+06  -1.076406e+08  7.846417e+06  0  9.133661e+05
-5.788299e+06  -1.083598e+08  8.789814e+06  0  9.560640e+05
-6.994735e+06  -1.090466e+08  9.735154e+06  0  9.946318e+05
-8.321137e+06  -1.096789e+08  1.067017e+07  0  1.029417e+06
-9.766049e+06  -1.102355e+08  1.158170e+07  0  1.059421e+06
-1.132080e+07  -1.106948e+08  1.245395e+07  0  1.082182e+06
-1.296977e+07  -1.110341e+08  1.326730e+07  0  1.094590e+06
-1.468912e+07  -1.112201e+08  1.399419e+07  0  1.091903e+06
-1.643975e+07  -1.112209e+08  1.460201e+07  0  1.072346e+06
-1.817333e+07  -1.110356e+08  1.507182e+07  0  1.039209e+06
-1.984037e+07  -1.106788e+08  1.539341e+07  0  9.926150e+05
-2.139423e+07  -1.101756e+08  1.556385e+07  0  9.338139e+05
-2.279520e+07  -1.095607e+08  1.558800e+07  0  8.642655e+05
-2.401139e+07  -1.088746e+08  1.547709e+07  0  7.850198e+05
-2.502002e+07  -1.081620e+08  1.524803e+07  0  6.974273e+05
-2.580917e+07  -1.074696e+08  1.492320e+07  0  6.035207e+05
-2.637859e+07  -1.068432e+08  1.452969e+07  0  5.058075e+05
-2.673880e+07  -1.063248e+08  1.409796e+07  0  4.077316e+05
-2.691022e+07  -1.059509e+08  1.366028e+07  0  3.153679e+05
-2.692206e+07  -1.057503e+08  1.324942e+07  0  2.416008e+05
-2.681083e+07  -1.057432e+08  1.289718e+07  0  2.114740e+05
-2.661866e+07  -1.059406e+08  1.263280e+07  0  2.430653e+05
-2.639150e+07  -1.063434e+08  1.248158e+07  0  3.176527e+05
-2.617731e+07  -1.069430e+08  1.246347e+07  0  4.105901e+05
-2.602428e+07  -1.077219e+08  1.259193e+07  0  5.094117e+05
-2.597882e+07  -1.086535e+08  1.287318e+07  0  6.080928e+05
-2.608315e+07  -1.097033e+08  1.330550e+07  0  7.031143e+05
-2.637231e+07  -1.108300e+08  1.387908e+07  0  7.917871e+05
-2.687067e+07  -1.119878e+08  1.457636e+07  0  8.720435e+05
-2.759204e+07  -1.131300e+08  1.537322e+07  0  9.427379e+05
-2.853983e+07  -1.142107e+08  1.624054e+07  0  1.002753e+06
-2.970692e+07  -1.151860e+08  1.714563e+07  0  1.051119e+06
-3.107453e+07  -1.160167e+08  1.805319e+07  0  1.086425e+06
-3.261140e+07  -1.166726e+08  1.892716e+07  0  1.107698e+06
-3.427733e+07  -1.171328e+08  1.973480e+07  0  1.114893e+06
-3.602576e+07  -1.173860e+08  2.044886e+07  0  1.107870e+06
-3.780571e+07  -1.174320e+08  2.104833e+07  0  1.086580e+06
-3.956632e+07  -1.172823e+08  2.151856e+07  0  1.051994e+06
-4.126052e+07  -1.169584e+08  2.185139e+07  0  1.005496e+06
-4.284795e+07  -1.164899e+08  2.204451e+07  0  9.488044e+05
-4.429599e+07  -1.159125e+08  2.210146e+07  0  8.833407e+05
-4.558063e+07  -1.152654e+08  2.203142e+07  0  8.106526e+05
-4.668660e+07  -1.145889e+08  2.184845e+07  0  7.320921e+05
-4.760631e+07  -1.139218e+08  2.157051e+07  0  6.489592e+05
-4.834002e+07  -1.133003e+08  2.121882e+07  0  5.628546e+05
-4.889516e+07  -1.127569e+08  2.081682e+07  0  4.755758e+05
-4.928522e+07  -1.123193e+08  2.038912e+07  0  3.894502e+05
-4.952869e+07  -1.120097e+08  1.996062e+07  0  3.081807e+05
-4.964807e+07  -1.118452e+08  1.955592e+07  0  2.390683e+05
-4.966907e+07  -1.118371e+08  1.919858e+07  0  1.970274e+05
-4.961992e+07  -1.119914e+08  1.891063e+07  0  2.006510e+05
-4.953085e+07  -1.123089e+08  1.871189e+07  0  2.478327e+05
-4.943346e+07  -1.127848e+08  1.861933e+07  0  3.191621e+05
-4.935996e+07  -1.134094e+08  1.864636e+07  0  4.008901e+05
-4.934255e+07  -1.141678e+08  1.880213e+07  0  4.864288e+05
-4.941263e+07  -1.150406e+08  1.909090e+07  0  5.723174e+05
-4.959963e+07  -1.160037e+08  1.951192e+07  0  6.563810e+05
-4.992993e+07  -1.170291e+08  2.005954e+07  0  7.370654e+05
-5.042566e+07  -1.180852e+08  2.072305e+07  0  8.129472e+05
-5.110252e+07  -1.191377e+08  2.148616e+07  0  8.822815e+05
-5.196885e+07  -1.201515e+08  2.232745e+07  0  9.438752e+05
-5.302448e+07  -1.210924e+08  2.322166e+07  0  9.962392e+05
-5.425924e+07  -1.219287e+08  2.414135e+07  0  1.038018e+06
-5.565365e+07  -1.226342e+08  2.505878e+07  0  1.068393e+06
-5.718145e+07  -1.231893e+08  2.594725e+07  0  1.087438e+06
-5.881237e+07  -1.235824e+08  2.678239e+07  0  1.095706e+06
-6.051393e+07  -1.238091e+08  2.754352e+07  0  1.093928e+06
-6.225323e+07  -1.238726e+08  2.821402e+07  0  1.082906e+06
-6.399865e+07  -1.237830e+08  2.878185e+07  0  1.063630e+06
-6.572168e+07  -1.235557e+08  2.923991e+07  0  1.037404e+06
-6.739788e+07  -1.232093e+08  2.958539e+07  0  1.005179e+06
-6.900671e+07  -1.227639e+08  2.981869e+07  0  9.679007e+05
-7.053209e+07  -1.222407e+08  2.994318e+07  0  9.266167e+05
-7.196162e+07  -1.216603e+08  2.996456e+07  0  8.817332e+05
-7.328521e+07  -1.210426e+08  2.989033e+07  0  8.335357e+05
-7.449579e+07  -1.204062e+08  2.972952e+07  0  7.826317e+05
-7.558918e+07  -1.197691e+08  2.949228e+07  0  7.295772e+05
-7.656387e+07  -1.191479e+08  2.918955e+07  0  6.749125e+05
-7.742073e+07  -1.185578e+08  2.883269e+07  0  6.192437e+05
-7.816298e+07  -1.180123e+08  2.843304e+07  0  5.632649e+05
-7.879585e+07  -1.175239e+08  2.800163e+07  0  5.077175e+05
-7.932626e+07  -1.171032e+08  2.754912e+07  0  4.534287e+05
-7.976236e+07  -1.167594e+08  2.708574e+07  0  4.014045e+05
-8.011338e+07  -1.164997e+08  2.662122e+07  0  3.529870e+05
-8.038920e+07  -1.163302e+08  2.616481e+07  0  3.099421e+05
-8.060014e+07  -1.162551e+08  2.572535e+07  0  2.746988e+05
-8.075678e+07  -1.162776e+08  2.531129e+07  0  2.503203e+05
-8.086988e+07  -1.163992e+08  2.493072e+07  0  2.398543e+05
-8.095030e+07  -1.166205e+08  2.459127e+07  0  2.448042e+05
-8.100903e+07  -1.169408e+08  2.430009e+07  0  2.640398e+05
-8.105709e+07  -1.173582e+08  2.406376e+07  0  2.944945e+05
-8.110552e+07  -1.178697e+08  2.388829e+07  0  3.327491e+05
-8.116530e+07  -1.184712e+08  2.377904e+07  0  3.761313e+05
-8.124735e+07  -1.191575e+08  2.374059e+07  0  4.227577e+05
-8.136242e+07  -1.199225e+08  2.377675e+07  0  4.712218e+05
-8.152099e+07  -1.207586e+08  2.389055e+07  0  5.206024e+05
-8.173326e+07  -1.216574e+08  2.408396e+07  0  5.702151e+05
-8.200893e+07  -1.226096e+08  2.435789e+07  0  6.195193e+05
-8.235727e+07  -1.236049e+08  2.471194e+07  0  6.681858e+05
-8.278700e+07  -1.246326e+08  2.514430e+07  0  7.158718e+05
-8.330580e+07  -1.256814e+08  2.565161e+07  0  7.621365e+05
-8.391986e+07  -1.267394e+08  2.622895e+07  0  8.065027e+05
-8.463359e+07  -1.277951e+08  2.687009e+07  0  8.486378e+05
-8.544951e+07  -1.288372e+08  2.756785e+07  0  8.881549e+05
-8.636837e+07  -1.298549e+08  2.831406e+07  0  9.248465e+05
-8.739041e+07  -1.308378e+08  2.909988e+07  0  9.588534e+05
-8.851532e+07  -1.317759e+08  2.991583e+07  0  9.901615e+05
-8.974156e+07  -1.326597e+08  3.075202e+07  0  1.018428e+06
-9.106491e+07  -1.334803e+08  3.159792e+07  0  1.042986e+06
-9.247913e+07  -1.342305e+08  3.244332e+07  0  1.063870e+06
-9.397671e+07  -1.349041e+08  3.327874e+07  0  1.081028e+06
-9.554877e+07  -1.354959e+08  3.409578e+07  0  1.094414e+06
-9.718543e+07  -1.360017e+08  3.488728e+07  0  1.104073e+06
-9.887640e+07  -1.364183e+08  3.564662e+07  0  1.110132e+06
-1.006111e+08  -1.367436e+08  3.636800e+07  0  1.112659e+06
-1.023784e+08  -1.369763e+08  3.704658e+07  0  1.111682e+06
-1.041672e+08  -1.371172e+08  3.767806e+07  0  1.107272e+06
-1.059662e+08  -1.371687e+08  3.825896e+07  0  1.099587e+06
-1.077650e+08  -1.371349e+08  3.878675e+07  0  1.088859e+06
-1.095537e+08  -1.370220e+08  3.925989e+07  0  1.075481e+06
-1.113242e+08  -1.368371e+08  3.967774e+07  0  1.059892e+06
-1.130696e+08  -1.365881e+08  4.004042e+07  0  1.042746e+06
-1.147855e+08  -1.362840e+08  4.034850e+07  0  1.024726e+06
-1.164691e+08  -1.359336e+08  4.060284e+07  0  1.006426e+06
-1.181198e+08  -1.355459e+08  4.080433e+07  0  9.887071e+05
-1.197389e+08  -1.351299e+08  4.095372e+07  0  9.722890e+05
-1.213294e+08  -1.346941e+08  4.105180e+07  0  9.576615e+05
-1.228953e+08  -1.342467e+08  4.109936e+07  0  9.453094e+05
-1.244414e+08  -1.337954e+08  4.109716e+07  0  9.355688e+05
-1.259733e+08  -1.333476e+08  4.104599e+07  0  9.285943e+05
-1.274964e+08  -1.329102e+08  4.094671e+07  0  9.243218e+05
-1.290154e+08  -1.324902e+08  4.080009e+07  0  9.224270e+05
-1.305346e+08  -1.320941e+08  4.060695e+07  0  9.226813e+05
-1.320574e+08  -1.317288e+08  4.036824e+07  0  9.247155e+05
-1.335859e+08  -1.314010e+08  4.008476e+07  0  9.276934e+05
-1.351203e+08  -1.311176e+08  3.975725e+07  0  9.310989e+05
-1.366596e+08  -1.308856e+08  3.938683e+07  0  9.344541e+05
-1.382013e+08  -1.307119e+08  3.897495e+07  0  9.370239e+05
-1.397410e+08  -1.306032e+08  3.852342e+07  0  9.381724e+05
-1.412728e+08  -1.305660e+08  3.803491e+07  0  9.373835e+05
-1.427894e+08  -1.306055e+08  3.751311e+07  0  9.341122e+05
-1.442824e+08  -1.307261e+08  3.696284e+07  0  9.278284e+05
-1.457422e+08  -1.309300e+08  3.638993e+07  0  9.180840e+05
-1.471587e+08  -1.312181e+08  3.580125e+07  0  9.044648e+05
-1.485215e+08  -1.315887e+08  3.520449e+07  0  8.866455e+05
-1.498202e+08  -1.320375e+08  3.460797e+07  0  8.643483e+05
-1.510452e+08  -1.325579e+08  3.402032e+07  0  8.373365e+05
-1.521876e+08  -1.331411e+08  3.345024e+07  0  8.054800e+05
-1.532402e+08  -1.337755e+08  3.290608e+07  0  7.688160e+05
-1.541975e+08  -1.344479e+08  3.239565e+07  0  7.274195e+05
-1.550562e+08  -1.351432e+08  3.192610e+07  0  6.814556e+05
-1.558156e+08  -1.358457e+08  3.150388e+07  0  6.312133e+05
-1.564773e+08  -1.365391e+08  3.113453e+07  0  5.770583e+05
-1.570455e+08  -1.372068e+08  3.082231e+07  0  5.195201e+05
-1.575273e+08  -1.378328e+08  3.057020e+07  0  4.592927e+05
-1.579321e+08  -1.384019e+08  3.037989e+07  0  3.971915e+05
-1.582713e+08  -1.389005e+08  3.025181e+07  0  3.344235e+05
-1.585584e+08  -1.393163e+08  3.018515e+07  0  2.729705e+05
-1.588084e+08  -1.396394e+08  3.017774e+07  0  2.165619e+05
-1.590374e+08  -1.398618e+08  3.022607e+07  0  1.728875e+05
-1.592625e+08  -1.399777e+08  3.032526e+07  0  1.554652e+05
-1.595013e+08  -1.399842e+08  3.046912e+07  0  1.737558e+05
-1.597715e+08  -1.398805e+08  3.065016e+07  0  2.194945e+05
-1.600907e+08  -1.396689e+08  3.085963e+07  0  2.794968e+05
-1.604757e+08  -1.393542e+08  3.108765e+07  0  3.460610e+05
-1.609427e+08  -1.389443e+08  3.132332e+07  0  4.154377e+05
-1.615062e+08  -1.384501e+08  3.155490e+07  0  4.856102e+05
-1.621790e+08  -1.378852e+08  3.177016e+07  0  5.552452e+05
-1.629714e+08  -1.372668e+08  3.195679e+07  0  6.232514e+05
-1.638904e+08  -1.366148e+08  3.210304e+07  0  6.886716e+05
-1.649397e+08  -1.359515e+08  3.219826e+07  0  7.505403e+05
-1.661184e+08  -1.353017e+08  3.223348e+07  0  8.078279e+05
-1.674207e+08  -1.346908e+08  3.220212e+07  0  8.592729e+05
-1.688351e+08  -1.341439e+08  3.210058e+07  0  9.035733e+05
-1.703447e+08  -1.336836e+08  3.192841e+07  0  9.398843e+05
-1.719289e+08  -1.333291e+08  3.168790e+07  0  9.675745e+05
-1.735637e+08  -1.330945e+08  3.138381e+07  0  9.861451e+05
-1.752232e+08  -1.329879e+08  3.102301e+07  0  9.955213e+05
-1.768817e+08  -1.330118e+08  3.061356e+07  0  9.959739e+05
-1.785145e+08  -1.331636e+08  3.016412e+07  0  9.878187e+05
-1.800989e+08  -1.334360e+08  2.968353e+07  0  9.714918e+05
-1.816146e+08  -1.338179e+08  2.918057e+07  0  9.474127e+05
-1.830438e+08  -1.342953e+08  2.866386e+07  0  9.159625e+05
-1.843723e+08  -1.348519e+08  2.814195e+07  0  8.775945e+05
-1.855886e+08  -1.354693e+08  2.762326e+07  0  8.325911e+05
-1.866847e+08  -1.361277e+08  2.711601e+07  0  7.812036e+05
-1.876560e+08  -1.368061e+08  2.662831e+07  0  7.237829e+05
-1.885018e+08  -1.374829e+08  2.616793e+07  0  6.607801e+05
-1.892251e+08  -1.381362e+08  2.574200e+07  0  5.926590e+05
-1.898331e+08  -1.387442e+08  2.535675e+07  0  5.201162e+05
-1.903369e+08  -1.392861e+08  2.501725e+07  0  4.440814e+05
-1.907513e+08  -1.397428e+08  2.472724e+07  0  3.661692e+05
-1.910949e+08  -1.400976e+08  2.448888e+07  0  2.894274e+05
-1.913895e+08  -1.403372e+08  2.430254e+07  0  2.201948e+05
-1.916588e+08  -1.404523e+08  2.416670e+07  0  1.729453e+05
-1.919281e+08  -1.404384e+08  2.407790e+07  0  1.702756e+05
-1.922228e+08  -1.402959e+08  2.403089e+07  0  2.140390e+05
-1.925669e+08  -1.400307e+08  2.401880e+07  0  2.819125e+05
-1.929818e+08  -1.396532e+08  2.403361e+07  0  3.579942e+05
-1.934854e+08  -1.391777e+08  2.406657e+07  0  4.350359e+05
-1.940910e+08  -1.386218e+08  2.410872e+07  0  5.094694e+05
-1.948069e+08  -1.380045e+08  2.415138e+07  0  5.793057e+05
-1.956366e+08  -1.373455e+08  2.418657e+07  0  6.433592e+05
-1.965790e+08  -1.366637e+08  2.420724e+07  0  7.009817e+05
-1.976292e+08  -1.359759e+08  2.420746e+07  0  7.519128e+05
-1.987794e+08  -1.352971e+08  2.418240e+07  0  7.961987e+05
-2.000198e+08  -1.346390e+08  2.412813e+07  0  8.341990e+05
-2.013399e+08  -1.340111e+08  2.404171e+07  0  8.663282e+05
-2.027283e+08  -1.334200e+08  2.392112e+07  0  8.930857e+05
-2.041742e+08  -1.328704e+08  2.376508e+07  0  9.151075e+05
-2.056675e+08  -1.323651e+08  2.357290e+07  0  9.329441e+05
-2.071987e+08  -1.319056e+08  2.334447e+07  0  9.470996e+05
-2.087593e+08  -1.314923e+08  2.308020e+07  0  9.581146e+05
-2.103419e+08  -1.311250e+08  2.278105e+07  0  9.664299e+05
-2.119398e+08  -1.308029e+08  2.244825e+07  0  9.723386e+05
-2.135471e+08  -1.305244e+08  2.208326e+07  0  9.761028e+05
-2.151584e+08  -1.302874e+08  2.168768e+07  0  9.779290e+05
-2.167690e+08  -1.300895e+08  2.126313e+07  0  9.780263e+05
-2.183748e+08  -1.299278e+08  2.081118e+07  0  9.765769e+05
-2.199718e+08  -1.297996e+08  2.033326e+07  0  9.737229e+05
-2.215570e+08  -1.297021e+08  1.983069e+07  0  9.695852e+05
-2.231272e+08  -1.296325e+08  1.930475e+07  0  9.642712e+05
-2.246799e+08  -1.295885e+08  1.875661e+07  0  9.578507e+05
-2.262126e+08  -1.295681e+08  1.818740e+07  0  9.503845e+05
-2.277230e+08  -1.295695e+08  1.759833e+07  0  9.419394e+05
-2.292094e+08  -1.295912e+08  1.699076e+07  0  9.326802e+05
-2.306703e+08  -1.296321e+08  1.636624e+07  0  9.227323e+05
-2.321046e+08  -1.296915e+08  1.572642e+07  0  9.121465e+05
-2.335110e+08  -1.297685e+08  1.507295e+07  0  9.008960e+05
-2.348882e+08  -1.298626e+08  1.440715e+07  0  8.886733e+05
-2.362340e+08  -1.299734e+08  1.373025e+07  0  8.754152e+05
-2.375465e+08  -1.301004e+08  1.304366e+07  0  8.610974e+05
-2.388236e+08  -1.302430e+08  1.234890e+07  0  8.455083e+05
-2.400626e+08  -1.304007e+08  1.164754e+07  0  8.282561e+05
-2.412605e+08  -1.305727e+08  1.094138e+07  0  8.093073e+05
-2.424145e+08  -1.307582e+08  1.023264e+07  0  7.886415e+05
-2.435220e+08  -1.309556e+08  9.523834e+06  0  7.663191e+05
-2.445813e+08  -1.311636e+08  8.817848e+06  0  7.425145e+05
-2.455909e+08  -1.313802e+08  8.117772e+06  0  7.172026e+05
-2.465495e+08  -1.316032e+08  7.426860e+06  0  6.903368e+05
-2.474561e+08  -1.318301e+08  6.748531e+06  0  6.618964e+05
-2.483101e+08  -1.320583e+08  6.086362e+06  0  6.319346e+05
-2.491116e+08  -1.322845e+08  5.443939e+06  0  6.007460e+05
-2.498614e+08  -1.325055e+08  4.824787e+06  0  5.684628e+05
-2.505607e+08  -1.327179e+08  4.232382e+06  0  5.352086e+05
-2.512112e+08  -1.329183e+08  3.670106e+06  0  5.011357e+05
-2.518152e+08  -1.331031e+08  3.141229e+06  0  4.664561e+05
-2.523753e+08  -1.332688e+08  2.648868e+06  0  4.314490e+05
-2.528947e+08  -1.334120e+08  2.195956e+06  0  3.964829e+05
-2.533771e+08  -1.335295e+08  1.785188e+06  0  3.620743e+05
-2.538267e+08  -1.336179e+08  1.418945e+06  0  3.289382e+05
-2.542480e+08  -1.336742e+08  1.099279e+06  0  2.980450e+05
-2.546460e+08  -1.336957e+08  8.278847e+05  0  2.707143e+05
-2.550262e+08  -1.336797e+08  6.060806e+05  0  2.486610e+05
-2.553942e+08  -1.336241e+08  4.347877e+05  0  2.338951e+05
-2.557561e+08  -1.335268e+08  3.145035e+05  0  2.282911e+05
-2.561180e+08  -1.333863e+08  2.452846e+05  0  2.328831e+05
-2.564865e+08  -1.332014e+08  2.267313e+05  0  2.473798e+05
-2.568680e+08  -1.329714e+08  2.579751e+05  0  2.703733e+05
-2.572693e+08  -1.326959e+08  3.376682e+05  0  3.000098e+05
-2.576970e+08  -1.323752e+08  4.639741e+05  0  3.345444e+05
-2.581579e+08  -1.320098e+08  6.345660e+05  0  3.725570e+05
-2.586585e+08  -1.316011e+08  8.467072e+05  0  4.129247e+05
-2.592052e+08  -1.311511e+08  1.097277e+06  0  4.548152e+05
-2.598039e+08  -1.306624e+08  1.382689e+06  0  4.976154e+05
-2.604605e+08  -1.301379e+08  1.698865e+06  0  5.408270e+05
-2.611802e+08  -1.295816e+08  2.041218e+06  0  5.840139e+05
-2.619677e+08  -1.289976e+08  2.404623e+06  0  6.267660e+05
-2.628271e+08  -1.283908e+08  2.783471e+06  0  6.687216e+05
-2.637613e+08  -1.277664e+08  3.171712e+06  0  7.093940e+05
-2.647719e+08  -1.271302e+08  3.562881e+06  0  7.480590e+05
-2.658587e+08  -1.264881e+08  3.950317e+06  0  7.843057e+05
-2.670201e+08  -1.258455e+08  4.327359e+06  0  8.177154e+05
-2.682526e+08  -1.252077e+08  4.687456e+06  0  8.477618e+05
-2.695504e+08  -1.245787e+08  5.024442e+06  0  8.736819e+05
-2.709054e+08  -1.239607e+08  5.332914e+06  0  8.951132e+05
-2.723086e+08  -1.233546e+08  5.608254e+06  0  9.121315e+05
-2.737504e+08  -1.227595e+08  5.846634e+06  0  9.249184e+05
-2.752220e+08  -1.221744e+08  6.044485e+06  0  9.339675e+05
-2.767152e+08  -1.215982e+08  6.198183e+06  0  9.395908e+05
-2.782223e+08  -1.210302e+08  6.304470e+06  0  9.419088e+05
-2.797357e+08  -1.204701e+08  6.360234e+06  0  9.408536e+05
-2.812472e+08  -1.199183e+08  6.362041e+06  0  9.361286e+05
-2.827483e+08  -1.193757e+08  6.307195e+06  0  9.276122e+05
-2.842302e+08  -1.188441e+08  6.194036e+06  0  9.151327e+05
-2.856833e+08  -1.183251e+08  6.022723e+06  0  8.981868e+05
-2.870976e+08  -1.178205e+08  5.795050e+06  0  8.767281e+05
-2.884637e+08  -1.173331e+08  5.513784e+06  0  8.509195e+05
-2.897729e+08  -1.168671e+08  5.182578e+06  0  8.206156e+05
-2.910168e+08  -1.164274e+08  4.805945e+06  0  7.858828e+05
-2.921889e+08  -1.160212e+08  4.389273e+06  0  7.474549e+05
-2.932854e+08  -1.156582e+08  3.938792e+06  0  7.064434e+05
-2.943060e+08  -1.153497e+08  3.461560e+06  0  6.645648e+05
-2.952548e+08  -1.151078e+08  2.965396e+06  0  6.242584e+05
-2.961395e+08  -1.149449e+08  2.458670e+06  0  5.883296e+05
-2.969719e+08  -1.148720e+08  1.950211e+06  0  5.599487e+05
-2.977668e+08  -1.148978e+08  1.449224e+06  0  5.421922e+05
-2.985412e+08  -1.150283e+08  9.651741e+05  0  5.374221e+05
-2.993137e+08  -1.152650e+08  5.075114e+05  0  5.464779e+05
-3.001031e+08  -1.156048e+08  8.514955e+04  0  5.683440e+05
-3.009274e+08  -1.160407e+08  -2.937929e+05  0  6.008865e+05
-3.018035e+08  -1.165621e+08  -6.222121e+05  0  6.415871e+05
-3.027471e+08  -1.171552e+08  -8.942754e+05  0  6.880761e+05
-3.037722e+08  -1.178031e+08  -1.105886e+06  0  7.381386e+05
-3.048898e+08  -1.184858e+08  -1.255413e+06  0  7.890972e+05
-3.061074e+08  -1.191810e+08  -1.343763e+06  0  8.392326e+05
-3.074295e+08  -1.198651e+08  -1.374245e+06  0  8.874001e+05
-3.088578e+08  -1.205130e+08  -1.352560e+06  0  9.325679e+05
-3.103895e+08  -1.210987e+08  -1.286999e+06  0  9.727941e+05
-3.120155e+08  -1.215974e+08  -1.188676e+06  0  1.006418e+06
-3.137210e+08  -1.219858e+08  -1.070132e+06  0  1.032177e+06
-3.154857e+08  -1.222439e+08  -9.448868e+05  0  1.048447e+06
-3.172828e+08  -1.223576e+08  -8.269158e+05  0  1.053800e+06
-3.190814e+08  -1.223200e+08  -7.293860e+05  0  1.047210e+06
-3.208475e+08  -1.221319e+08  -6.628694e+05  0  1.028032e+06
-3.225468e+08  -1.218023e+08  -6.337866e+05  0  9.959324e+05
-3.241467e+08  -1.213493e+08  -6.462723e+05  0  9.508510e+05
-3.256190e+08  -1.207995e+08  -7.028620e+05  0  8.932854e+05
-3.269425e+08  -1.201869e+08  -8.054902e+05  0  8.243383e+05
-3.281060e+08  -1.195522e+08  -9.567602e+05  0  7.461263e+05
-3.291102e+08  -1.189398e+08  -1.159818e+06  0  6.624299e+05
-3.299693e+08  -1.183943e+08  -1.417469e+06  0  5.795711e+05
-3.307110e+08  -1.179560e+08  -1.730513e+06  0  5.071964e+05
-3.313739e+08  -1.176563e+08  -2.096697e+06  0  4.586393e+05
-3.320049e+08  -1.175149e+08  -2.510164e+06  0  4.472074e+05
-3.326544e+08  -1.175369e+08  -2.961284e+06  0  4.771685e+05
-3.333718e+08  -1.177127e+08  -3.436940e+06  0  5.398441e+05
-3.342006e+08  -1.180183e+08  -3.921369e+06  0  6.211846e+05
-3.351738e+08  -1.184169e+08  -4.397209e+06  0  7.079520e+05
-3.363095e+08  -1.188631e+08  -4.847412e+06  0  7.914578e+05
-3.376111e+08  -1.193076e+08  -5.257860e+06  0  8.662398e+05
-3.390676e+08  -1.197011e+08  -5.618883e+06  0  9.287857e+05
-3.406539e+08  -1.199997e+08  -5.925771e+06  0  9.759060e+05
-3.423329e+08  -1.201740e+08  -6.178647e+06  0  1.006672e+06
-3.440648e+08  -1.202075e+08  -6.381912e+06  0  1.022494e+06
-3.458115e+08  -1.200975e+08  -6.542802e+06  0  1.025427e+06
-3.475437e+08  -1.198593e+08  -6.669949e+06  0  1.019545e+06
-3.492446e+08  -1.195161e+08  -6.771624e+06  0  1.009506e+06
-3.509093e+08  -1.190924e+08  -6.855789e+06  0  9.986251e+05
-3.525404e+08  -1.186110e+08  -6.931800e+06  0  9.890793e+05
-3.541457e+08  -1.180914e+08  -7.008016e+06  0  9.824974e+05
-3.557342e+08  -1.175491e+08  -7.091665e+06  0  9.785218e+05
-3.573109e+08  -1.169920e+08  -7.189140e+06  0  9.756874e+05
-3.588788e+08  -1.164256e+08  -7.305779e+06  0  9.738307e+05
-3.604407e+08  -1.158543e+08  -7.445672e+06  0  9.728037e+05
-3.619986e+08  -1.152813e+08  -7.610316e+06  0  9.727590e+05
-3.635550e+08  -1.147091e+08  -7.800014e+06  0  9.737737e+05
-3.651126e+08  -1.141404e+08  -8.014882e+06  0  9.759659e+05
-3.666748e+08  -1.135786e+08  -8.254983e+06  0  9.797527e+05
-3.682454e+08  -1.130279e+08  -8.520506e+06  0  9.850879e+05
-3.698283e+08  -1.124930e+08  -8.812066e+06  0  9.917824e+05
-3.714267e+08  -1.119795e+08  -9.130554e+06  0  9.996715e+05
-3.730434e+08  -1.114941e+08  -9.476698e+06  0  1.008296e+06
-3.746798e+08  -1.110438e+08  -9.851481e+06  0  1.016953e+06
-3.763354e+08  -1.106358e+08  -1.025574e+07  0  1.025050e+06
-3.780085e+08  -1.102781e+08  -1.068938e+07  0  1.031848e+06
-3.796950e+08  -1.099779e+08  -1.115263e+07  0  1.036353e+06
-3.813877e+08  -1.097412e+08  -1.164597e+07  0  1.037667e+06
-3.830776e+08  -1.095727e+08  -1.216979e+07  0  1.034888e+06
-3.847526e+08  -1.094742e+08  -1.272502e+07  0  1.027197e+06
-3.863994e+08  -1.094429e+08  -1.331282e+07  0  1.014227e+06
-3.880044e+08  -1.094711e+08  -1.393402e+07  0  9.961320e+05
-3.895555e+08  -1.095468e+08  -1.458919e+07  0  9.734914e+05
-3.910435e+08  -1.096527e+08  -1.527826e+07  0  9.478923e+05
-3.924655e+08  -1.097670e+08  -1.599972e+07  0  9.218365e+05
-3.938241e+08  -1.098670e+08  -1.675058e+07  0  8.977012e+05
-3.951280e+08  -1.099313e+08  -1.752614e+07  0  8.781424e+05
-3.963916e+08  -1.099408e+08  -1.831966e+07  0  8.659715e+05
-3.976341e+08  -1.098814e+08  -1.912245e+07  0  8.629556e+05
-3.988776e+08  -1.097458e+08  -1.992423e+07  0  8.701492e+05
-4.001457e+08  -1.095339e+08  -2.071359e+07  0  8.876069e+05
-4.014616e+08  -1.092540e+08  -2.147892e+07  0  9.136009e+05
-4.028441e+08  -1.089210e+08  -2.220958e+07  0  9.453428e+05
-4.043063e+08  -1.085544e+08  -2.289633e+07  0  9.801079e+05
-4.058558e+08  -1.081763e+08  -2.353179e+07  0  1.014988e+06
-4.074902e+08  -1.078088e+08  -2.411343e+07  0  1.046286e+06
-4.092003e+08  -1.074697e+08  -2.464337e+07  0  1.072839e+06
-4.109743e+08  -1.071715e+08  -2.512629e+07  0  1.094369e+06
-4.127985e+08  -1.069242e+08  -2.557140e+07  0  1.110447e+06
-4.146588e+08  -1.067340e+08  -2.599068e+07  0  1.121647e+06
-4.165427e+08  -1.066018e+08  -2.639539e+07  0  1.128963e+06
-4.184408e+08  -1.065283e+08  -2.679432e+07  0  1.133433e+06
-4.203459e+08  -1.065132e+08  -2.719337e+07  0  1.135855e+06
-4.222522e+08  -1.065551e+08  -2.759623e+07  0  1.136640e+06
-4.241551e+08  -1.066522e+08  -2.800550e+07  0  1.136195e+06
-4.260516e+08  -1.068025e+08  -2.842155e+07  0  1.135076e+06
-4.279388e+08  -1.070041e+08  -2.884472e+07  0  1.132969e+06
-4.298133e+08  -1.072552e+08  -2.927640e+07  0  1.129940e+06
-4.316725e+08  -1.075537e+08  -2.971725e+07  0  1.126177e+06
-4.335140e+08  -1.078985e+08  -3.016737e+07  0  1.121655e+06
-4.353350e+08  -1.082886e+08  -3.062669e+07  0  1.116373e+06
-4.371335e+08  -1.087232e+08  -3.109474e+07  0  1.110574e+06
-4.389084e+08  -1.092010e+08  -3.156962e+07  0  1.104623e+06
-4.406589e+08  -1.097214e+08  -3.204878e+07  0  1.098544e+06
-4.423855e+08  -1.102831e+08  -3.252912e+07  0  1.093088e+06
-4.440909e+08  -1.108835e+08  -3.300650e+07  0  1.088816e+06
-4.457785e+08  -1.115204e+08  -3.347633e+07  0  1.085839e+06
-4.474535e+08  -1.121908e+08  -3.393353e+07  0  1.085366e+06
-4.491246e+08  -1.128894e+08  -3.437261e+07  0  1.088066e+06
-4.508007e+08  -1.136106e+08  -3.478856e+07  0  1.093834e+06
-4.524930e+08  -1.143462e+08  -3.517700e+07  0  1.104211e+06
-4.542173e+08  -1.150828e+08  -3.553499e+07  0  1.119698e+06
-4.559881e+08  -1.158037e+08  -3.586281e+07  0  1.139352e+06
-4.578199e+08  -1.164860e+08  -3.616538e+07  0  1.163441e+06
-4.597257e+08  -1.170965e+08  -3.645556e+07  0  1.189743e+06
-4.617065e+08  -1.175972e+08  -3.675677e+07  0  1.213714e+06
-4.637463e+08  -1.179444e+08  -3.710628e+07  0  1.229163e+06
-4.657975e+08  -1.181011e+08  -3.755756e+07  0  1.224996e+06
-4.677745e+08  -1.180701e+08  -3.816680e+07  0  1.191030e+06
-4.695763e+08  -1.179228e+08  -3.896647e+07  0  1.124583e+06
-4.711277e+08  -1.177982e+08  -3.994342e+07  0  1.036705e+06
-4.724369e+08  -1.178620e+08  -4.101863e+07  0  9.638211e+05
-4.736196e+08  -1.182254e+08  -4.206861e+07  0  9.462634e+05
-4.748445e+08  -1.188841e+08  -4.298062e+07  0  9.962387e+05
-4.762708e+08  -1.197163e+08  -4.370014e+07  0  1.091928e+06
-4.779904e+08  -1.205234e+08  -4.425352e+07  0  1.195021e+06
-4.799796e+08  -1.210986e+08  -4.473656e+07  0  1.265524e+06
-4.820841e+08  -1.213148e+08  -4.528840e+07  0  1.274916e+06
-4.840844e+08  -1.212041e+08  -4.602650e+07  0  1.219982e+06
-4.858134e+08  -1.209643e+08  -4.699211e+07  0  1.125276e+06
-4.872527e+08  -1.208659e+08  -4.812890e+07  0  1.043626e+06
-4.885516e+08  -1.210937e+08  -4.929914e+07  0  1.032285e+06
-4.899389e+08  -1.216401e+08  -5.036026e+07  0  1.101511e+06
-4.915943e+08  -1.223134e+08  -5.124543e+07  0  1.206248e+06
-4.935444e+08  -1.228468e+08  -5.199600e+07  0  1.287741e+06
-4.956506e+08  -1.230471e+08  -5.272695e+07  0  1.310448e+06
-4.976893e+08  -1.228994e+08  -5.356454e+07  0  1.267751e+06
-4.994823e+08  -1.225793e+08  -5.458862e+07  0  1.185074e+06
-5.010001e+08  -1.223434e+08  -5.578857e+07  0  1.110998e+06
-5.023618e+08  -1.223843e+08  -5.707216e+07  0  1.089274e+06
-5.037493e+08  -1.227415e+08  -5.831983e+07  0  1.129489e+06
-5.053195e+08  -1.233114e+08  -5.944434e+07  0  1.208260e+06
-5.071457e+08  -1.239104e+08  -6.042321e+07  0  1.289815e+06
-5.091909e+08  -1.243624e+08  -6.130175e+07  0  1.344132e+06
-5.113453e+08  -1.245760e+08  -6.215754e+07  0  1.362843e+06
-5.134890e+08  -1.245559e+08  -6.306290e+07  0  1.350276e+06
-5.155306e+08  -1.243742e+08  -6.406848e+07  0  1.317509e+06
-5.174273e+08  -1.241283e+08  -6.519128e+07  0  1.277255e+06
-5.191737e+08  -1.239069e+08  -6.642316e+07  0  1.237704e+06
-5.207874e+08  -1.237781e+08  -6.774031e+07  0  1.204886e+06
-5.223001e+08  -1.237854e+08  -6.911045e+07  0  1.182211e+06
-5.237461e+08  -1.239492e+08  -7.050079e+07  0  1.169742e+06
-5.251575e+08  -1.242740e+08  -7.188189e+07  0  1.166825e+06
-5.265626e+08  -1.247544e+08  -7.322897e+07  0  1.171984e+06
-5.279838e+08  -1.253785e+08  -7.452215e+07  0  1.183182e+06
-5.294370e+08  -1.261310e+08  -7.574626e+07  0  1.198143e+06
-5.309313e+08  -1.269969e+08  -7.688968e+07  0  1.214607e+06
-5.324692e+08  -1.279632e+08  -7.794261e+07  0  1.230906e+06
-5.340526e+08  -1.290181e+08  -7.889543e+07  0  1.247799e+06
-5.356834e+08  -1.301499e+08  -7.973864e+07  0  1.264331e+06
-5.373597e+08  -1.313477e+08  -8.046274e+07  0  1.279713e+06
-5.390816e+08  -1.325995e+08  -8.105701e+07  0  1.295260e+06
-5.408512e+08  -1.338902e+08  -8.150991e+07  0  1.310482e+06
-5.426673e+08  -1.352037e+08  -8.181056e+07  0  1.324377e+06
-5.445287e+08  -1.365204e+08  -8.194802e+07  0  1.337348e+06
-5.464336e+08  -1.378171e+08  -8.191265e+07  0  1.348359e+06
-5.483760e+08  -1.390681e+08  -8.169801e+07  0  1.356392e+06
-5.503478e+08  -1.402452e+08  -8.130046e+07  0  1.360801e+06
-5.523375e+08  -1.413180e+08  -8.072192e+07  0  1.360549e+06
-5.543291e+08  -1.422574e+08  -7.997039e+07  0  1.354207e+06
-5.563019e+08  -1.430375e+08  -7.905949e+07  0  1.340854e+06
-5.582331e+08  -1.436365e+08  -7.800970e+07  0  1.319987e+06
-5.600971e+08  -1.440415e+08  -7.684692e+07  0  1.290927e+06
-5.618689e+08  -1.442477e+08  -7.560069e+07  0  1.254051e+06
-5.635276e+08  -1.442564e+08  -7.430341e+07  0  1.210620e+06
-5.650594e+08  -1.440765e+08  -7.298908e+07  0  1.162630e+06
-5.664576e+08  -1.437228e+08  -7.168991e+07  0  1.111918e+06
-5.677219e+08  -1.432129e+08  -7.043466e+07  0  1.060468e+06
-5.688588e+08  -1.425652e+08  -6.924804e+07  0  1.010670e+06
-5.698795e+08  -1.417968e+08  -6.815073e+07  0  9.641613e+05
-5.707985e+08  -1.409229e+08  -6.715996e+07  0  9.226684e+05
-5.716334e+08  -1.399569e+08  -6.629011e+07  0  8.880441e+05
-5.724046e+08  -1.389105e+08  -6.555296e+07  0  8.621729e+05
-5.731337e+08  -1.377944e+08  -6.495791e+07  0  8.461042e+05
-5.738432e+08  -1.366196e+08  -6.451108e+07  0  8.408188e+05
-5.745570e+08  -1.353976e+08  -6.421431e+07  0  8.469221e+05
-5.752990e+08  -1.341396e+08  -6.406439e+07  0  8.642293e+05
-5.760929e+08  -1.328569e+08  -6.405266e+07  0  8.917624e+05
-5.769610e+08  -1.315596e+08  -6.416478e+07  0  9.278633e+05
-5.779228e+08  -1.302563e+08  -6.438064e+07  0  9.705359e+05
-5.789942e+08  -1.289534e+08  -6.467417e+07  0  1.017675e+06