VARIABLES="x", "y", "z", "spec", "Speed"
ZONE T="Trajectory=0" F=POINT
-9.189737e-01  -2.918974e+00  -3.000000e+00  0  1.414214e+00
-9.189737e-01  -2.918974e+00  -3.000000e+00  0  1.414214e+00
-9.379473e-01  -2.937947e+00  -3.000000e+00  0  1.414214e+00
-9.569210e-01  -2.956921e+00  -3.000000e+00  0  1.414214e+00
-9.758947e-01  -2.975895e+00  -3.000000e+00  0  1.414214e+00
-9.948683e-01  -2.994868e+00  -3.000000e+00  0  1.414214e+00
-1.013842e+00  -3.013842e+00  -3.000000e+00  0  1.414214e+00
2.967184e+00  1.967184e+00  -3.000000e+00  0  1.414214e+00
2.948211e+00  1.948211e+00  -3.000000e+00  0  1.414214e+00
2.929237e+00  1.929237e+00  -3.000000e+00  0  1.414214e+00
ZONE T="Trajectory=1" F=POINT
-9.189737e-01  -2.918974e+00  -3.918974e+00  0  1.732051e+00
-9.189737e-01  -2.918974e+00  -3.918974e+00  0  1.732051e+00
-9.379473e-01  -2.937947e+00  -3.937947e+00  0  1.732051e+00
-9.569210e-01  -2.956921e+00  -3.956921e+00  0  1.732051e+00
-9.758947e-01  -2.975895e+00  -3.975895e+00  0  1.732051e+00
-9.948683e-01  -2.994868e+00  -3.994868e+00  0  1.732051e+00
-1.013842e+00  -3.013842e+00  -4.013842e+00  0  1.732051e+00
2.967184e+00  1.967184e+00  2.967184e+00  0  1.732051e+00
2.948211e+00  1.948211e+00  2.948211e+00  0  1.732051e+00
2.929237e+00  1.929237e+00  2.929237e+00  0  1.732051e+00
ZONE T="Trajectory=2" F=POINT
0.000000e+00  0.000000e+00  -3.518974e+00  0  1.000000e+00
0.000000e+00  0.000000e+00  -3.518974e+00  0  1.000000e+00
0.000000e+00  -2.083333e-08  -3.537947e+00  0  1.000000e+00
0.000000e+00  -2.083333e-08  -3.556921e+00  0  1.000000e+00
0.000000e+00  -2.083333e-08  -3.575895e+00  0  1.000000e+00
0.000000e+00  -2.083333e-08  -3.594868e+00  0  1.000000e+00
0.000000e+00  -2.083333e-08  -3.613842e+00  0  1.000000e+00
0.000000e+00  -2.083333e-08  -3.632816e+00  0  1.000000e+00
0.000000e+00  -2.083333e-08  -3.651789e+00  0  1.000000e+00
0.000000e+00  -2.083333e-08  -3.670763e+00  0  1.000000e+00
ZONE T="Trajectory=3" F=POINT
0.000000e+00  -2.518974e+00  0.000000e+00  0  1.000000e+00
0.000000e+00  -2.518974e+00  0.000000e+00  0  1.000000e+00
0.000000e+00  -2.537947e+00  0.000000e+00  0  1.000000e+00
0.000000e+00  -2.556921e+00  0.000000e+00  0  1.000000e+00
0.000000e+00  -2.575895e+00  0.000000e+00  0  1.000000e+00
0.000000e+00  -2.594868e+00  0.000000e+00  0  1.000000e+00
0.000000e+00  -2.613842e+00  0.000000e+00  0  1.000000e+00
0.000000e+00  -2.632816e+00  0.000000e+00  0  1.000000e+00
0.000000e+00  -2.651789e+00  0.000000e+00  0  1.000000e+00
0.000000e+00  -2.670763e+00  0.000000e+00  0  1.000000e+00
ZONE T="Trajectory=4" F=POINT
2.915179e+00  1.915179e+00  2.881026e+00  0  1.509967e+00
2.915179e+00  1.915179e+00  2.881026e+00  0  1.509967e+00
2.930358e+00  1.930358e+00  2.862053e+00  0  1.509967e+00
2.945537e+00  1.945537e+00  2.843079e+00  0  1.509967e+00
2.960716e+00  1.960716e+00  2.824105e+00  0  1.509967e+00
2.975895e+00  1.975895e+00  2.805132e+00  0  1.509967e+00
2.991074e+00  1.991074e+00  2.786158e+00  0  1.509967e+00
3.006253e+00  2.006253e+00  2.767184e+00  0  1.509967e+00
-9.785685e-01  -2.978569e+00  2.748211e+00  0  1.509967e+00
-9.633896e-01  -2.963390e+00  2.729237e+00  0  1.509967e+00
ZONE T="Trajectory=5" F=POINT
2.918974e+00  1.918974e+00  2.918974e+00  0  1.732051e+00
2.918974e+00  1.918974e+00  2.918974e+00  0  1.732051e+00
2.937947e+00  1.937947e+00  2.937947e+00  0  1.732051e+00
2.956921e+00  1.956921e+00  2.956921e+00  0  1.732051e+00
2.975895e+00  1.975895e+00  2.975895e+00  0  1.732051e+00
2.994868e+00  1.994868e+00  2.994868e+00  0  1.732051e+00
3.013842e+00  2.013842e+00  3.013842e+00  0  1.732051e+00
-9.671843e-01  -2.967184e+00  -3.967184e+00  0  1.732051e+00
-9.482107e-01  -2.948211e+00  -3.948211e+00  0  1.732051e+00
-9.292370e-01  -2.929237e+00  -3.929237e+00  0  1.732051e+00
ZONE T="Trajectory=6" F=POINT
2.918974e+00  0.000000e+00  0.000000e+00  0  1.000000e+00
2.918974e+00  0.000000e+00  0.000000e+00  0  1.000000e+00
2.937947e+00  0.000000e+00  0.000000e+00  0  1.000000e+00
2.956921e+00  0.000000e+00  0.000000e+00  0  1.000000e+00
2.975895e+00  0.000000e+00  0.000000e+00  0  1.000000e+00
2.994868e+00  0.000000e+00  0.000000e+00  0  1.000000e+00
3.013842e+00  -2.083333e-08  0.000000e+00  0  1.000000e+00
-9.671843e-01  -2.083333e-08  0.000000e+00  0  1.000000e+00
-9.482107e-01  -2.083333e-08  0.000000e+00  0  1.000000e+00
-9.292370e-01  -2.083333e-08  0.000000e+00  0  1.000000e+00
ZONE T="Trajectory=7" F=POINT
0.000000e+00  0.000000e+00  2.918974e+00  0  1.000000e+00
0.000000e+00  0.000000e+00  2.918974e+00  0  1.000000e+00
0.000000e+00  0.000000e+00  2.937947e+00  0  1.000000e+00
0.000000e+00  0.000000e+00  2.956921e+00  0  1.000000e+00
0.000000e+00  0.000000e+00  2.975895e+00  0  1.000000e+00
0.000000e+00  0.000000e+00  2.994868e+00  0  1.000000e+00
0.000000e+00  -2.083333e-08  3.013842e+00  0  1.000000e+00
0.000000e+00  -2.083333e-08  -3.967184e+00  0  1.000000e+00
0.000000e+00  -2.083333e-08  -3.948211e+00  0  1.000000e+00
0.000000e+00  -2.083333e-08  -3.929237e+00  0  1.000000e+00
ZONE T="Trajectory=8" F=POINT
0.000000e+00  1.918974e+00  0.000000e+00  0  1.000000e+00
0.000000e+00  1.918974e+00  0.000000e+00  0  1.000000e+00
0.000000e+00  1.937947e+00  0.000000e+00  0  1.000000e+00
0.000000e+00  1.956921e+00  0.000000e+00  0  1.000000e+00
0.000000e+00  1.975895e+00  0.000000e+00  0  1.000000e+00
0.000000e+00  1.994868e+00  0.000000e+00  0  1.000000e+00
0.000000e+00  2.013842e+00  0.000000e+00  0  1.000000e+00
0.000000e+00  -2.967184e+00  0.000000e+00  0  1.000000e+00
0.000000e+00  -2.948211e+00  0.000000e+00  0  1.000000e+00
0.000000e+00  -2.929237e+00  0.000000e+00  0  1.000000e+00
ZONE T="Trajectory=9" F=POINT
-8.189737e-01  0.000000e+00  0.000000e+00  0  1.000000e+00
-8.189737e-01  0.000000e+00  0.000000e+00  0  1.000000e+00
-8.379473e-01  0.000000e+00  0.000000e+00  0  1.000000e+00
-8.569210e-01  0.000000e+00  0.000000e+00  0  1.000000e+00
-8.758947e-01  -2.083333e-08  0.000000e+00  0  1.000000e+00
-8.948684e-01  -2.083333e-08  0.000000e+00  0  1.000000e+00
-9.138420e-01  -2.083333e-08  0.000000e+00  0  1.000000e+00
-9.328157e-01  -2.083333e-08  0.000000e+00  0  1.000000e+00
-9.517893e-01  -2.083333e-08  0.000000e+00  0  1.000000e+00
-9.707630e-01  -2.083333e-08  0.000000e+00  0  1.000000e+00
