VARIABLES="Lon", "Lat",  "Cutoff Rigidity (s=0)",  "Cutoff Rigidity (s=1)"
ZONE I=5, J=6, DATAPACKING=POINT
0.000000e+00 9.000000e+01   1.479825e+00  3.390399e-01
7.200000e+01 9.000000e+01   1.479998e+00  3.363637e-01
1.440000e+02 9.000000e+01   1.478540e+00  3.360418e-01
2.160000e+02 9.000000e+01   1.478540e+00  3.356904e-01
2.880000e+02 9.000000e+01   1.479825e+00  3.356904e-01
0.000000e+00 3.686990e+01   1.479825e+00  3.390399e-01
7.200000e+01 3.686990e+01   1.479998e+00  3.363637e-01
1.440000e+02 3.686990e+01   1.478540e+00  3.360418e-01
2.160000e+02 3.686990e+01   1.478540e+00  3.356904e-01
2.880000e+02 3.686990e+01   1.478616e+00  3.356904e-01
0.000000e+00 1.153696e+01   1.261139e+01  1.227129e+01
7.200000e+01 1.153696e+01   1.267691e+01  1.269587e+01
1.440000e+02 1.153696e+01   1.380978e+01  1.527078e+01
2.160000e+02 1.153696e+01   1.656203e+01  1.561210e+01
2.880000e+02 1.153696e+01   1.261139e+01  1.227129e+01
0.000000e+00 -1.153696e+01   1.277246e+01  1.240246e+01
7.200000e+01 -1.153696e+01   1.224914e+01  1.140119e+01
1.440000e+02 -1.153696e+01   8.284170e+00  -1.000000e+00
2.160000e+02 -1.153696e+01   8.284170e+00  7.764145e+00
2.880000e+02 -1.153696e+01   9.199236e+00  -1.000000e+00
0.000000e+00 -3.686990e+01   1.487453e+00  3.457805e-01
7.200000e+01 -3.686990e+01   1.487453e+00  3.356253e-01
1.440000e+02 -3.686990e+01   1.479907e+00  3.356253e-01
2.160000e+02 -3.686990e+01   1.479907e+00  3.541576e-01
2.880000e+02 -3.686990e+01   1.515457e+00  3.541576e-01
0.000000e+00 -9.000000e+01   1.487453e+00  3.457805e-01
7.200000e+01 -9.000000e+01   1.487453e+00  3.356253e-01
1.440000e+02 -9.000000e+01   1.479907e+00  3.356253e-01
2.160000e+02 -9.000000e+01   1.479907e+00  3.541576e-01
2.880000e+02 -9.000000e+01   1.500874e+00  3.396174e-01
