VARIABLES="Lon", "Lat",  "Cutoff Rigidity [GV] (s=0)", "Injected Particle Number (s=0)", "Max energy injected particles (s=0)",  "Cutoff Rigidity [GV] (s=1)", "Injected Particle Number (s=1)", "Max energy injected particles (s=1)"
ZONE I=11, J=11, DATAPACKING=POINT
-1.800000e+02 9.000000e+01   4.510430e-01  2.002000e+03  5.716814e+03  1.008779e-01  2.002000e+03  1.583198e+02
-1.440000e+02 9.000000e+01   4.436418e-01  2.002000e+03  1.992207e+03  1.011060e-01  2.002000e+03  3.124318e+03
-1.080000e+02 9.000000e+01   4.497640e-01  2.002000e+03  5.084663e+03  1.011060e-01  2.002000e+03  2.177938e+02
-7.200000e+01 9.000000e+01   4.438645e-01  2.002000e+03  2.996784e+02  1.025660e-01  2.002000e+03  3.019990e+03
-3.600000e+01 9.000000e+01   4.433086e-01  2.002000e+03  2.194302e+02  1.009266e-01  2.002000e+03  5.663612e+02
0.000000e+00 9.000000e+01   4.433086e-01  2.002000e+03  2.177408e+03  1.009266e-01  2.002000e+03  1.268040e+03
3.600000e+01 9.000000e+01   4.438359e-01  2.002000e+03  1.572950e+04  1.008316e-01  2.002000e+03  3.097654e+02
7.200000e+01 9.000000e+01   4.433557e-01  2.002000e+03  4.657338e+03  1.006674e-01  2.002000e+03  5.279945e+02
1.080000e+02 9.000000e+01   4.433557e-01  2.002000e+03  1.085282e+03  1.006674e-01  2.002000e+03  2.506696e+04
1.440000e+02 9.000000e+01   4.458716e-01  2.002000e+03  8.485027e+02  1.008779e-01  2.002000e+03  1.114244e+02
1.800000e+02 9.000000e+01   4.510430e-01  2.002000e+03  5.716814e+03  1.008779e-01  2.002000e+03  1.583198e+02
-1.800000e+02 5.313010e+01   4.466289e-01  2.002000e+03  8.668433e+03  1.008779e-01  2.002000e+03  2.002837e+03
-1.440000e+02 5.313010e+01   4.510430e-01  2.002000e+03  7.792063e+03  1.011060e-01  2.002000e+03  1.167718e+04
-1.080000e+02 5.313010e+01   4.436418e-01  2.002000e+03  3.375445e+02  1.011060e-01  2.002000e+03  1.090875e+04
-7.200000e+01 5.313010e+01   4.438645e-01  2.002000e+03  2.283241e+04  1.025660e-01  2.002000e+03  1.054669e+03
-3.600000e+01 5.313010e+01   4.433086e-01  2.002000e+03  1.914265e+03  1.009266e-01  2.002000e+03  1.686740e+02
0.000000e+00 5.313010e+01   4.433086e-01  2.002000e+03  1.661550e+02  1.009266e-01  2.002000e+03  1.900916e+04
3.600000e+01 5.313010e+01   4.438949e-01  2.002000e+03  2.681986e+03  1.008316e-01  2.002000e+03  6.317048e+03
7.200000e+01 5.313010e+01   4.433557e-01  2.002000e+03  2.846670e+02  1.006674e-01  2.002000e+03  1.141097e+03
1.080000e+02 5.313010e+01   4.433557e-01  2.002000e+03  2.519938e+04  1.006674e-01  2.002000e+03  1.147431e+04
1.440000e+02 5.313010e+01   4.458716e-01  2.002000e+03  3.935283e+02  1.008779e-01  2.002000e+03  1.339880e+04
1.800000e+02 5.313010e+01   4.466289e-01  2.002000e+03  8.668433e+03  1.008779e-01  2.002000e+03  2.002837e+03
-1.800000e+02 3.686990e+01   2.943052e+00  2.007500e+03  6.217247e+03  3.200639e+00  1.993750e+03  1.857583e+03
-1.440000e+02 3.686990e+01   2.655083e+00  2.003000e+03  2.002682e+03  2.440733e+00  2.001250e+03  1.785882e+04
-1.080000e+02 3.686990e+01   1.411082e+00  2.003750e+03  5.338034e+03  1.386350e+00  2.002250e+03  2.169859e+03
-7.200000e+01 3.686990e+01   7.460503e-01  2.002750e+03  2.483895e+02  7.232491e-01  2.003000e+03  5.314566e+02
-3.600000e+01 3.686990e+01   7.460503e-01  2.002000e+03  1.266543e+03  7.232491e-01  2.002000e+03  6.165531e+03
0.000000e+00 3.686990e+01   7.380552e-01  2.002000e+03  5.488808e+03  5.555929e-01  2.002000e+03  2.018068e+04
3.600000e+01 3.686990e+01   6.001792e-01  2.002000e+03  1.012971e+02  5.890273e-01  2.002000e+03  2.002617e+02
7.200000e+01 3.686990e+01   5.460130e-01  2.002000e+03  6.011949e+03  5.890273e-01  2.002000e+03  9.964045e+03
1.080000e+02 3.686990e+01   5.501219e-01  2.002000e+03  1.048780e+02  8.669546e-01  2.002000e+03  8.236502e+03
1.440000e+02 3.686990e+01   1.268326e+00  2.007500e+03  4.464413e+03  1.683379e+00  1.993750e+03  1.255841e+04
1.800000e+02 3.686990e+01   2.943052e+00  2.007500e+03  6.217247e+03  3.200639e+00  1.993750e+03  1.857583e+03
-1.800000e+02 2.357818e+01   6.411627e+00  2.007750e+03  2.060329e+04  6.069554e+00  1.987750e+03  2.395304e+04
-1.440000e+02 2.357818e+01   6.248199e+00  2.006500e+03  2.019020e+04  5.472956e+00  2.014250e+03  1.029321e+04
-1.080000e+02 2.357818e+01   3.502029e+00  2.008250e+03  1.092694e+04  4.292790e+00  2.002250e+03  2.556862e+04
-7.200000e+01 2.357818e+01   3.458763e+00  2.002750e+03  4.103189e+03  3.948210e+00  1.992250e+03  4.016035e+03
-3.600000e+01 2.357818e+01   3.458763e+00  2.002000e+03  5.776148e+02  3.909886e+00  2.002000e+03  1.099751e+04
0.000000e+00 2.357818e+01   3.730080e+00  2.002000e+03  1.363707e+02  3.699288e+00  2.002000e+03  1.512471e+04
3.600000e+01 2.357818e+01   3.523773e+00  2.002000e+03  3.204129e+03  3.699288e+00  2.002000e+03  4.318002e+03
7.200000e+01 2.357818e+01   3.428281e+00  2.002000e+03  6.642544e+03  3.387667e+00  2.002000e+03  1.691683e+03
1.080000e+02 2.357818e+01   3.523889e+00  2.002000e+03  1.358957e+02  3.387667e+00  2.002000e+03  5.059151e+03
1.440000e+02 2.357818e+01   5.785663e+00  2.008750e+03  1.211137e+03  5.609665e+00  1.985500e+03  5.278710e+02
1.800000e+02 2.357818e+01   6.411627e+00  2.007750e+03  2.060329e+04  6.069554e+00  1.987750e+03  2.395304e+04
-1.800000e+02 1.153696e+01   8.854331e+00  2.006000e+03  1.368134e+03  9.309435e+00  1.998250e+03  2.088862e+04
-1.440000e+02 1.153696e+01   8.502476e+00  2.004250e+03  2.389481e+03  8.241919e+00  2.018000e+03  2.491430e+04
-1.080000e+02 1.153696e+01   6.728237e+00  1.993750e+03  2.224581e+03  7.215686e+00  2.016500e+03  1.924515e+04
-7.200000e+01 1.153696e+01   6.458273e+00  1.994750e+03  6.952987e+02  5.621031e+00  2.003500e+03  1.334992e+03
-3.600000e+01 1.153696e+01   6.458273e+00  2.002000e+03  8.079099e+02  5.621031e+00  2.002000e+03  2.215686e+02
0.000000e+00 1.153696e+01   7.025512e+00  2.002000e+03  5.242473e+03  6.013165e+00  2.002000e+03  1.012878e+03
3.600000e+01 1.153696e+01   7.169087e+00  2.002000e+03  6.351475e+02  7.734885e+00  2.002000e+03  5.963661e+02
7.200000e+01 1.153696e+01   7.045667e+00  2.002000e+03  5.547726e+02  7.281792e+00  2.002000e+03  1.569396e+02
1.080000e+02 1.153696e+01   8.496324e+00  1.999250e+03  1.425798e+04  7.998403e+00  2.001500e+03  4.490242e+02
1.440000e+02 1.153696e+01   1.037081e+01  2.000000e+03  1.859369e+04  8.748459e+00  1.994750e+03  9.749519e+03
1.800000e+02 1.153696e+01   8.854331e+00  2.006000e+03  1.368134e+03  9.309435e+00  1.998250e+03  2.088862e+04
-1.800000e+02 0.000000e+00   7.721844e+00  2.005750e+03  2.721883e+02  8.776492e+00  2.004250e+03  1.499683e+04
-1.440000e+02 0.000000e+00   7.721844e+00  2.000750e+03  1.737640e+03  8.241919e+00  2.005000e+03  3.688694e+02
-1.080000e+02 0.000000e+00   7.709525e+00  1.989250e+03  1.158868e+03  8.084360e+00  2.016500e+03  4.186348e+03
-7.200000e+01 0.000000e+00   7.144490e+00  1.994750e+03  4.211642e+02  7.533535e+00  2.014250e+03  4.483094e+02
-3.600000e+01 0.000000e+00   7.144490e+00  2.002000e+03  2.370507e+02  7.533535e+00  2.002000e+03  2.259789e+02
0.000000e+00 0.000000e+00   7.462432e+00  2.002000e+03  2.085527e+04  7.692886e+00  2.002000e+03  3.105121e+02
3.600000e+01 0.000000e+00   8.110037e+00  2.002000e+03  1.554454e+02  7.692886e+00  2.002000e+03  1.645577e+04
7.200000e+01 0.000000e+00   9.193765e+00  2.002000e+03  7.292193e+03  8.998336e+00  2.002000e+03  5.960434e+03
1.080000e+02 0.000000e+00   9.399360e+00  1.999250e+03  4.459472e+03  1.021193e+01  2.001500e+03  8.473585e+02
1.440000e+02 0.000000e+00   8.065915e+00  1.998750e+03  3.923166e+02  9.015446e+00  2.003000e+03  1.186354e+04
1.800000e+02 0.000000e+00   7.721844e+00  2.005750e+03  2.721883e+02  8.776492e+00  2.004250e+03  1.499683e+04
-1.800000e+02 -1.153696e+01   4.646841e+00  2.002000e+03  3.955035e+03  5.369367e+00  2.002000e+03  1.188356e+03
-1.440000e+02 -1.153696e+01   4.646841e+00  2.002000e+03  1.988075e+04  6.175257e+00  2.002000e+03  3.867927e+02
-1.080000e+02 -1.153696e+01   5.571893e+00  2.002000e+03  1.293675e+04  5.760872e+00  2.002000e+03  1.166733e+04
-7.200000e+01 -1.153696e+01   6.640456e+00  2.002000e+03  9.266545e+02  5.760872e+00  2.002000e+03  2.454724e+03
-3.600000e+01 -1.153696e+01   5.177848e+00  2.002000e+03  1.764473e+02  6.218294e+00  2.002000e+03  1.659686e+02
0.000000e+00 -1.153696e+01   5.177848e+00  2.002000e+03  2.409407e+03  5.999968e+00  2.002000e+03  1.740693e+02
3.600000e+01 -1.153696e+01   6.271935e+00  2.002000e+03  5.089488e+03  5.999968e+00  2.002000e+03  5.293960e+02
7.200000e+01 -1.153696e+01   7.760275e+00  2.002000e+03  5.273862e+02  8.375444e+00  2.002000e+03  5.512901e+02
1.080000e+02 -1.153696e+01   7.760275e+00  2.002000e+03  7.715795e+03  8.206591e+00  2.002000e+03  2.271676e+03
1.440000e+02 -1.153696e+01   5.168073e+00  2.002000e+03  3.441600e+03  5.369367e+00  2.002000e+03  4.971092e+03
1.800000e+02 -1.153696e+01   4.646841e+00  2.002000e+03  3.955035e+03  5.369367e+00  2.002000e+03  1.188356e+03
-1.800000e+02 -2.357818e+01   1.897753e+00  2.002000e+03  5.119030e+02  2.047612e+00  2.002000e+03  8.589504e+03
-1.440000e+02 -2.357818e+01   1.897753e+00  2.002000e+03  5.173290e+03  2.047612e+00  2.002000e+03  1.402127e+02
-1.080000e+02 -2.357818e+01   2.675301e+00  2.002000e+03  2.579526e+02  2.945139e+00  2.002000e+03  2.248014e+03
-7.200000e+01 -2.357818e+01   4.686700e+00  2.002000e+03  9.283314e+02  4.817632e+00  2.002000e+03  5.565894e+02
-3.600000e+01 -2.357818e+01   4.626348e+00  2.002000e+03  6.916169e+02  4.098353e+00  2.002000e+03  1.177886e+02
0.000000e+00 -2.357818e+01   4.230806e+00  2.002000e+03  5.163386e+02  3.781625e+00  2.002000e+03  5.555286e+02
3.600000e+01 -2.357818e+01   4.230806e+00  2.002000e+03  2.049043e+02  3.781625e+00  2.002000e+03  5.762912e+03
7.200000e+01 -2.357818e+01   3.928052e+00  2.002000e+03  3.882870e+02  4.468229e+00  2.002000e+03  4.555570e+02
1.080000e+02 -2.357818e+01   2.787551e+00  2.002000e+03  5.409858e+02  4.280658e+00  2.002000e+03  4.162016e+02
1.440000e+02 -2.357818e+01   2.251258e+00  2.002000e+03  1.827174e+03  2.094847e+00  2.002000e+03  1.886956e+04
1.800000e+02 -2.357818e+01   1.897753e+00  2.002000e+03  5.119030e+02  2.047612e+00  2.002000e+03  8.589504e+03
-1.800000e+02 -3.686990e+01   4.436112e-01  2.002000e+03  7.607095e+02  1.018245e-01  2.002000e+03  1.270375e+03
-1.440000e+02 -3.686990e+01   4.460854e-01  2.002000e+03  1.381147e+03  1.023616e-01  2.002000e+03  2.190593e+02
-1.080000e+02 -3.686990e+01   5.560023e-01  2.002000e+03  1.481031e+04  3.259368e-01  2.002000e+03  7.733343e+03
-7.200000e+01 -3.686990e+01   1.426906e+00  2.002000e+03  2.292847e+04  2.129525e+00  2.002000e+03  8.092821e+02
-3.600000e+01 -3.686990e+01   2.651272e+00  2.002000e+03  4.765360e+03  2.185486e+00  2.002000e+03  5.147845e+03
0.000000e+00 -3.686990e+01   2.111556e+00  2.002000e+03  5.583567e+02  2.136364e+00  2.002000e+03  2.370922e+03
3.600000e+01 -3.686990e+01   1.684815e+00  2.002000e+03  2.512417e+03  1.818746e+00  2.002000e+03  1.483717e+03
7.200000e+01 -3.686990e+01   8.688972e-01  2.002000e+03  2.240237e+04  8.921657e-01  2.002000e+03  8.092169e+02
1.080000e+02 -3.686990e+01   4.435289e-01  2.002000e+03  5.667787e+03  3.531725e-01  2.002000e+03  4.036499e+02
1.440000e+02 -3.686990e+01   4.435289e-01  2.002000e+03  3.422860e+02  1.018245e-01  2.002000e+03  1.444537e+04
1.800000e+02 -3.686990e+01   4.436112e-01  2.002000e+03  7.607095e+02  1.018245e-01  2.002000e+03  1.270375e+03
-1.800000e+02 -5.313010e+01   4.436112e-01  1.995500e+03  1.065153e+03  1.018245e-01  2.005250e+03  6.470191e+02
-1.440000e+02 -5.313010e+01   4.436521e-01  2.002000e+03  9.655306e+03  1.023616e-01  2.002000e+03  2.360126e+03
-1.080000e+02 -5.313010e+01   4.436521e-01  2.002000e+03  9.768091e+02  1.044186e-01  2.002000e+03  7.973221e+02
-7.200000e+01 -5.313010e+01   4.603616e-01  2.002000e+03  7.652472e+03  1.932233e-01  2.002000e+03  3.164201e+03
-3.600000e+01 -5.313010e+01   4.603616e-01  2.002000e+03  7.385749e+02  1.083085e-01  2.002000e+03  4.464384e+02
0.000000e+00 -5.313010e+01   4.475112e-01  2.002000e+03  4.735819e+03  1.063667e-01  2.002000e+03  3.927868e+02
3.600000e+01 -5.313010e+01   4.466151e-01  2.002000e+03  2.087314e+04  1.063667e-01  2.002000e+03  8.715067e+03
7.200000e+01 -5.313010e+01   4.437630e-01  2.003750e+03  1.226024e+03  1.008409e-01  2.001250e+03  1.984769e+04
1.080000e+02 -5.313010e+01   4.433597e-01  1.999500e+03  2.536625e+02  1.008409e-01  1.997250e+03  2.950906e+02
1.440000e+02 -5.313010e+01   4.433597e-01  1.991250e+03  4.861368e+02  1.010332e-01  2.001250e+03  3.097268e+03
1.800000e+02 -5.313010e+01   4.436112e-01  1.995500e+03  1.065153e+03  1.018245e-01  2.005250e+03  6.470191e+02
-1.800000e+02 -9.000000e+01   4.431514e-01  1.989000e+03  4.861368e+02  1.042304e-01  2.008500e+03  3.097268e+03
-1.440000e+02 -9.000000e+01   4.436521e-01  2.002000e+03  1.065153e+03  1.027097e-01  2.002000e+03  6.470191e+02
-1.080000e+02 -9.000000e+01   4.436521e-01  2.002000e+03  9.655306e+03  1.019492e-01  2.002000e+03  2.360126e+03
-7.200000e+01 -9.000000e+01   4.518541e-01  2.002000e+03  9.768091e+02  1.037117e-01  2.002000e+03  7.973221e+02
-3.600000e+01 -9.000000e+01   4.603616e-01  2.002000e+03  7.652472e+03  1.083085e-01  2.002000e+03  3.164201e+03
0.000000e+00 -9.000000e+01   4.475112e-01  2.002000e+03  7.385749e+02  1.063667e-01  2.002000e+03  4.464384e+02
3.600000e+01 -9.000000e+01   4.466151e-01  2.002000e+03  4.735819e+03  1.063667e-01  2.002000e+03  3.927868e+02
7.200000e+01 -9.000000e+01   4.437630e-01  2.005500e+03  2.087314e+04  1.008409e-01  2.000500e+03  8.715067e+03
1.080000e+02 -9.000000e+01   4.433597e-01  1.997000e+03  1.226024e+03  1.008409e-01  1.992500e+03  1.984769e+04
1.440000e+02 -9.000000e+01   4.433597e-01  1.980500e+03  2.536625e+02  1.008330e-01  2.000500e+03  2.950906e+02
1.800000e+02 -9.000000e+01   4.431514e-01  1.989000e+03  4.861368e+02  1.042304e-01  2.008500e+03  3.097268e+03
