VARIABLES="Lon", "Lat",  "Cutoff Rigidity [GV] (s=0)", "Injected Particle Number (s=0)", "Max energy injected particles (s=0)",  "Cutoff Rigidity [GV] (s=1)", "Injected Particle Number (s=1)", "Max energy injected particles (s=1)"
ZONE I=11, J=11, DATAPACKING=POINT
-1.800000e+02 9.000000e+01   4.437920e-01  2.000000e+03  2.742707e+04  1.016089e-01  2.000000e+03  9.730736e+03
-1.440000e+02 9.000000e+01   4.433678e-01  2.000000e+03  3.266956e+02  1.019464e-01  2.000000e+03  9.311306e+03
-1.080000e+02 9.000000e+01   4.431243e-01  2.000500e+03  1.557242e+03  1.006637e-01  2.003500e+03  3.460703e+02
-7.200000e+01 9.000000e+01   4.491332e-01  2.000500e+03  2.002062e+03  1.006637e-01  2.003500e+03  4.442035e+03
-3.600000e+01 9.000000e+01   4.448317e-01  2.000000e+03  2.669414e+02  1.007473e-01  2.000000e+03  2.494576e+03
0.000000e+00 9.000000e+01   4.433863e-01  1.998500e+03  3.585064e+02  1.007473e-01  2.000500e+03  3.515634e+03
3.600000e+01 9.000000e+01   4.433863e-01  2.003000e+03  8.247235e+03  1.013382e-01  1.999500e+03  1.014685e+04
7.200000e+01 9.000000e+01   4.443447e-01  2.005000e+03  5.902862e+03  1.013382e-01  1.984000e+03  5.878395e+03
1.080000e+02 9.000000e+01   4.446231e-01  2.000500e+03  1.177836e+04  1.015408e-01  1.985000e+03  9.348729e+03
1.440000e+02 9.000000e+01   4.471276e-01  2.000000e+03  7.576704e+02  1.015408e-01  2.000000e+03  5.367698e+02
1.800000e+02 9.000000e+01   4.437920e-01  2.000000e+03  2.742707e+04  1.016089e-01  2.000000e+03  9.730736e+03
-1.800000e+02 5.313010e+01   4.489335e-01  2.000000e+03  3.151079e+02  1.016089e-01  2.000000e+03  1.039123e+04
-1.440000e+02 5.313010e+01   4.437920e-01  2.000000e+03  1.972877e+04  1.019464e-01  2.000000e+03  1.176836e+03
-1.080000e+02 5.313010e+01   4.433678e-01  2.013000e+03  3.491936e+03  1.006637e-01  2.005250e+03  2.019539e+04
-7.200000e+01 5.313010e+01   4.431243e-01  2.013000e+03  1.014799e+03  1.006637e-01  2.005250e+03  8.401751e+02
-3.600000e+01 5.313010e+01   4.448317e-01  2.000000e+03  1.478174e+02  1.007473e-01  2.000000e+03  2.398424e+03
0.000000e+00 5.313010e+01   4.433863e-01  1.999250e+03  1.836719e+03  1.007473e-01  2.000250e+03  3.730416e+03
3.600000e+01 5.313010e+01   4.433863e-01  2.001500e+03  1.176349e+03  1.013382e-01  1.999750e+03  1.128305e+04
7.200000e+01 5.313010e+01   4.443447e-01  2.004500e+03  1.746588e+03  1.013382e-01  2.002000e+03  1.959109e+04
1.080000e+02 5.313010e+01   4.446231e-01  2.002250e+03  2.203632e+03  1.015408e-01  2.002500e+03  9.221889e+02
1.440000e+02 5.313010e+01   4.471276e-01  2.000000e+03  8.150693e+02  1.015408e-01  2.000000e+03  8.402870e+02
1.800000e+02 5.313010e+01   4.489335e-01  2.000000e+03  3.151079e+02  1.016089e-01  2.000000e+03  1.039123e+04
-1.800000e+02 3.686990e+01   2.885935e+00  2.000000e+03  2.731351e+03  3.281110e+00  1.999250e+03  5.893243e+03
-1.440000e+02 3.686990e+01   2.465177e+00  2.000500e+03  1.016963e+04  2.977487e+00  2.000000e+03  1.823084e+04
-1.080000e+02 3.686990e+01   1.131490e+00  2.011750e+03  1.473585e+03  1.524968e+00  2.002500e+03  1.391519e+04
-7.200000e+01 3.686990e+01   7.211642e-01  2.012750e+03  4.246662e+02  6.854632e-01  2.003000e+03  1.622427e+03
-3.600000e+01 3.686990e+01   7.211642e-01  2.001500e+03  4.406959e+02  5.460309e-01  2.000500e+03  4.271609e+03
0.000000e+00 3.686990e+01   6.203526e-01  2.000250e+03  5.174903e+02  5.460309e-01  1.999750e+03  5.196150e+03
3.600000e+01 3.686990e+01   6.957492e-01  2.001500e+03  1.109424e+04  6.579088e-01  2.001250e+03  2.198725e+04
7.200000e+01 3.686990e+01   6.484154e-01  2.004000e+03  1.154039e+03  6.468203e-01  2.005000e+03  2.272938e+03
1.080000e+02 3.686990e+01   8.379656e-01  2.002750e+03  5.064143e+03  6.468203e-01  2.003500e+03  6.076875e+03
1.440000e+02 3.686990e+01   1.602672e+00  2.000000e+03  2.397325e+04  1.465232e+00  1.999250e+03  1.385428e+02
1.800000e+02 3.686990e+01   2.885935e+00  2.000000e+03  2.731351e+03  3.281110e+00  1.999250e+03  5.893243e+03
-1.800000e+02 2.357818e+01   6.662588e+00  1.997000e+03  1.282845e+04  7.283514e+00  1.995000e+03  1.438963e+03
-1.440000e+02 2.357818e+01   6.293490e+00  1.998500e+03  2.168960e+04  6.997625e+00  1.999250e+03  1.767080e+03
-1.080000e+02 2.357818e+01   4.241796e+00  1.993250e+03  1.926402e+04  4.299887e+00  1.999750e+03  6.164898e+03
-7.200000e+01 2.357818e+01   3.247534e+00  1.996250e+03  4.024925e+03  3.780689e+00  1.998500e+03  9.673240e+03
-3.600000e+01 2.357818e+01   3.247534e+00  2.001500e+03  1.698427e+02  3.780689e+00  1.998000e+03  8.521771e+02
0.000000e+00 2.357818e+01   3.812811e+00  1.988500e+03  9.168500e+03  3.878355e+00  1.999500e+03  7.842932e+03
3.600000e+01 2.357818e+01   3.317321e+00  1.991500e+03  1.521147e+04  3.472697e+00  2.000750e+03  1.873335e+03
7.200000e+01 2.357818e+01   3.317321e+00  2.010500e+03  4.233413e+02  3.472697e+00  1.998500e+03  3.663246e+03
1.080000e+02 2.357818e+01   3.825055e+00  2.007500e+03  3.143781e+03  3.718105e+00  1.997250e+03  1.059658e+03
1.440000e+02 2.357818e+01   4.459811e+00  1.997000e+03  5.561907e+02  5.744477e+00  1.995000e+03  2.598232e+03
1.800000e+02 2.357818e+01   6.662588e+00  1.997000e+03  1.282845e+04  7.283514e+00  1.995000e+03  1.438963e+03
-1.800000e+02 1.153696e+01   9.225727e+00  2.005000e+03  1.315676e+03  8.718400e+00  1.987500e+03  1.502362e+04
-1.440000e+02 1.153696e+01   8.526431e+00  2.013750e+03  2.214249e+04  8.718400e+00  1.995000e+03  1.616184e+04
-1.080000e+02 1.153696e+01   6.521494e+00  2.014500e+03  1.227717e+04  6.959050e+00  1.995500e+03  9.308659e+03
-7.200000e+01 1.153696e+01   5.667880e+00  2.009750e+03  2.619006e+04  5.381562e+00  1.999500e+03  3.455085e+03
-3.600000e+01 1.153696e+01   5.667880e+00  2.009000e+03  1.449048e+03  5.381562e+00  1.999000e+03  1.963865e+02
0.000000e+00 1.153696e+01   7.114691e+00  1.988500e+03  5.571520e+03  6.203969e+00  1.999250e+03  7.180273e+03
3.600000e+01 1.153696e+01   6.889538e+00  1.998000e+03  7.832966e+03  6.258478e+00  2.003250e+03  3.049713e+03
7.200000e+01 1.153696e+01   7.071835e+00  2.031250e+03  8.942295e+02  6.258478e+00  2.010500e+03  1.514526e+04
1.080000e+02 1.153696e+01   7.749204e+00  2.021750e+03  1.888653e+03  7.806308e+00  2.006500e+03  9.623630e+02
1.440000e+02 1.153696e+01   9.653016e+00  2.005000e+03  5.391950e+03  8.996678e+00  1.987500e+03  1.016568e+03
1.800000e+02 1.153696e+01   9.225727e+00  2.005000e+03  1.315676e+03  8.718400e+00  1.987500e+03  1.502362e+04
-1.800000e+02 0.000000e+00   8.346267e+00  2.008000e+03  2.721883e+02  8.419285e+00  1.991750e+03  1.641939e+04
-1.440000e+02 0.000000e+00   8.346267e+00  2.015750e+03  1.737640e+03  8.118183e+00  1.995750e+03  5.662518e+02
-1.080000e+02 0.000000e+00   7.580380e+00  2.026000e+03  1.751708e+02  8.118183e+00  2.000500e+03  3.529561e+02
-7.200000e+01 0.000000e+00   7.411203e+00  2.019250e+03  2.031260e+04  7.877774e+00  2.006250e+03  4.223078e+03
-3.600000e+01 0.000000e+00   7.411203e+00  2.009000e+03  2.021855e+04  7.680132e+00  2.001500e+03  2.853719e+04
0.000000e+00 0.000000e+00   7.352780e+00  2.000250e+03  1.449807e+04  7.355570e+00  1.999500e+03  3.397904e+03
3.600000e+01 0.000000e+00   7.352780e+00  2.008000e+03  2.416326e+02  7.355570e+00  2.003750e+03  2.553666e+04
7.200000e+01 0.000000e+00   8.787329e+00  2.035500e+03  1.772536e+03  9.052650e+00  1.999750e+03  4.338259e+03
1.080000e+02 0.000000e+00   9.086846e+00  2.027750e+03  2.415778e+03  9.911825e+00  1.995500e+03  9.321583e+03
1.440000e+02 0.000000e+00   8.378154e+00  2.008000e+03  3.422487e+02  8.702570e+00  1.991750e+03  3.124318e+03
1.800000e+02 0.000000e+00   8.346267e+00  2.008000e+03  2.721883e+02  8.419285e+00  1.991750e+03  1.641939e+04
-1.800000e+02 -1.153696e+01   4.549449e+00  2.000000e+03  7.159932e+03  4.913578e+00  2.000000e+03  1.045021e+04
-1.440000e+02 -1.153696e+01   4.549449e+00  2.000000e+03  3.222356e+02  5.580172e+00  2.000000e+03  8.739251e+02
-1.080000e+02 -1.153696e+01   6.029620e+00  2.001000e+03  9.660587e+03  5.850144e+00  2.007750e+03  2.240499e+04
-7.200000e+01 -1.153696e+01   6.251828e+00  2.001000e+03  2.271432e+02  7.011625e+00  2.007750e+03  6.855029e+02
-3.600000e+01 -1.153696e+01   6.006294e+00  2.000000e+03  1.101841e+03  6.434911e+00  2.000000e+03  1.668859e+02
0.000000e+00 -1.153696e+01   6.006294e+00  2.000000e+03  1.423523e+02  6.198457e+00  2.000000e+03  6.317048e+03
3.600000e+01 -1.153696e+01   6.631519e+00  2.000000e+03  2.980941e+03  6.198457e+00  2.000000e+03  1.141097e+03
7.200000e+01 -1.153696e+01   7.479548e+00  2.005750e+03  4.507433e+03  6.817133e+00  1.983750e+03  1.723616e+04
1.080000e+02 -1.153696e+01   6.711945e+00  2.005750e+03  5.190835e+02  7.774314e+00  1.983750e+03  7.600344e+03
1.440000e+02 -1.153696e+01   5.466834e+00  2.000000e+03  9.314511e+02  4.913578e+00  2.000000e+03  2.638370e+03
1.800000e+02 -1.153696e+01   4.549449e+00  2.000000e+03  7.159932e+03  4.913578e+00  2.000000e+03  1.045021e+04
-1.800000e+02 -2.357818e+01   1.957070e+00  2.000000e+03  2.039316e+02  2.020796e+00  2.000000e+03  1.098762e+04
-1.440000e+02 -2.357818e+01   1.957070e+00  2.000000e+03  1.484786e+04  2.020796e+00  2.000000e+03  1.499683e+04
-1.080000e+02 -2.357818e+01   2.801874e+00  1.984500e+03  3.629459e+03  2.355718e+00  2.006000e+03  3.688694e+02
-7.200000e+01 -2.357818e+01   4.651263e+00  1.984500e+03  3.063678e+02  3.970288e+00  2.006000e+03  3.105121e+02
-3.600000e+01 -2.357818e+01   4.324835e+00  2.000000e+03  1.172244e+02  4.511045e+00  2.000000e+03  1.645577e+04
0.000000e+00 -2.357818e+01   3.708687e+00  1.996500e+03  3.978893e+03  4.073150e+00  2.000500e+03  1.945245e+02
3.600000e+01 -2.357818e+01   3.708687e+00  1.993750e+03  2.087101e+04  4.073150e+00  1.999250e+03  8.705721e+03
7.200000e+01 -2.357818e+01   4.478142e+00  1.991250e+03  1.800079e+03  4.030705e+00  1.983750e+03  5.757383e+03
1.080000e+02 -2.357818e+01   3.145831e+00  1.994000e+03  1.513708e+03  3.258860e+00  1.985000e+03  1.330427e+04
1.440000e+02 -2.357818e+01   2.177917e+00  2.000000e+03  2.016720e+02  2.559601e+00  2.000000e+03  3.131752e+03
1.800000e+02 -2.357818e+01   1.957070e+00  2.000000e+03  2.039316e+02  2.020796e+00  2.000000e+03  1.098762e+04
-1.800000e+02 -3.686990e+01   4.439820e-01  2.000000e+03  2.479341e+03  1.070796e-01  2.000000e+03  4.301420e+03
-1.440000e+02 -3.686990e+01   4.439820e-01  2.000000e+03  3.413006e+03  1.221429e-01  2.000000e+03  1.975654e+04
-1.080000e+02 -3.686990e+01   5.240759e-01  1.999000e+03  2.938036e+02  3.303407e-01  2.000500e+03  2.077699e+03
-7.200000e+01 -3.686990e+01   1.380409e+00  1.999000e+03  1.115858e+04  1.479869e+00  2.000500e+03  1.231781e+02
-3.600000e+01 -3.686990e+01   2.135905e+00  2.000000e+03  4.054114e+02  2.182309e+00  2.000000e+03  3.738448e+03
0.000000e+00 -3.686990e+01   2.002358e+00  1.997250e+03  2.269468e+03  2.182309e+00  2.005500e+03  9.471742e+02
3.600000e+01 -3.686990e+01   1.967100e+00  1.996750e+03  3.390169e+03  1.472159e+00  2.007250e+03  1.892324e+04
7.200000e+01 -3.686990e+01   6.970915e-01  2.006500e+03  1.599687e+04  9.376277e-01  1.997000e+03  3.806755e+02
1.080000e+02 -3.686990e+01   4.467259e-01  2.007000e+03  1.487466e+04  2.090502e-01  1.995250e+03  1.762356e+04
1.440000e+02 -3.686990e+01   4.467259e-01  2.000000e+03  2.413972e+04  1.070796e-01  2.000000e+03  2.572340e+03
1.800000e+02 -3.686990e+01   4.439820e-01  2.000000e+03  2.479341e+03  1.070796e-01  2.000000e+03  4.301420e+03
-1.800000e+02 -5.313010e+01   4.435229e-01  2.004750e+03  1.596404e+02  1.007610e-01  2.009000e+03  5.413017e+02
-1.440000e+02 -5.313010e+01   4.435229e-01  2.000000e+03  7.629871e+02  1.011815e-01  2.000000e+03  3.625117e+02
-1.080000e+02 -5.313010e+01   4.440470e-01  1.989750e+03  2.731178e+04  1.011815e-01  1.993250e+03  2.296414e+03
-7.200000e+01 -5.313010e+01   4.439446e-01  1.993500e+03  1.622831e+04  1.214447e-01  1.996000e+03  7.008541e+03
-3.600000e+01 -5.313010e+01   4.439446e-01  2.003750e+03  5.786789e+03  2.741924e-01  2.002750e+03  2.673659e+03
0.000000e+00 -5.313010e+01   4.467492e-01  2.001000e+03  7.526893e+03  1.881716e-01  2.010000e+03  2.054695e+03
3.600000e+01 -5.313010e+01   4.443623e-01  2.003000e+03  8.536668e+03  1.011466e-01  2.013500e+03  8.802180e+02
7.200000e+01 -5.313010e+01   4.443623e-01  2.010000e+03  1.760744e+04  1.011466e-01  2.003500e+03  4.270200e+03
1.080000e+02 -5.313010e+01   4.458939e-01  2.009250e+03  3.101647e+03  1.014056e-01  2.004000e+03  1.119322e+04
1.440000e+02 -5.313010e+01   4.437010e-01  2.006000e+03  1.107253e+04  1.007610e-01  2.013000e+03  2.401718e+03
1.800000e+02 -5.313010e+01   4.435229e-01  2.004750e+03  1.596404e+02  1.007610e-01  2.009000e+03  5.413017e+02
-1.800000e+02 -9.000000e+01   4.435229e-01  2.009500e+03  1.107253e+04  1.007610e-01  2.018000e+03  2.401718e+03
-1.440000e+02 -9.000000e+01   4.435229e-01  2.000000e+03  1.596404e+02  1.011815e-01  2.000000e+03  5.413017e+02
-1.080000e+02 -9.000000e+01   4.440470e-01  1.960000e+03  7.629871e+02  1.011815e-01  1.993500e+03  3.625117e+02
-7.200000e+01 -9.000000e+01   4.439446e-01  1.967500e+03  2.731178e+04  1.214447e-01  1.999000e+03  2.296414e+03
-3.600000e+01 -9.000000e+01   4.439446e-01  2.007500e+03  1.622831e+04  1.352260e-01  2.005500e+03  7.008541e+03
0.000000e+00 -9.000000e+01   4.467492e-01  2.000500e+03  5.786789e+03  1.061956e-01  2.010000e+03  2.673659e+03
3.600000e+01 -9.000000e+01   4.443623e-01  2.000000e+03  7.526893e+03  1.011466e-01  2.011000e+03  2.054695e+03
7.200000e+01 -9.000000e+01   4.443623e-01  2.003500e+03  8.536668e+03  1.011466e-01  1.998500e+03  8.802180e+02
1.080000e+02 -9.000000e+01   4.431145e-01  2.006500e+03  1.760744e+04  1.014056e-01  2.005500e+03  4.270200e+03
1.440000e+02 -9.000000e+01   4.437010e-01  2.012000e+03  3.101647e+03  1.007610e-01  2.026000e+03  1.119322e+04
1.800000e+02 -9.000000e+01   4.435229e-01  2.009500e+03  1.107253e+04  1.007610e-01  2.018000e+03  2.401718e+03
