VARIABLES="Lon", "Lat",  "Cutoff Rigidity [GV] (s=0)", "Injected Particle Number (s=0)", "Max energy injected particles (s=0)",  "Cutoff Rigidity [GV] (s=1)", "Injected Particle Number (s=1)", "Max energy injected particles (s=1)"
ZONE I=6, J=6, DATAPACKING=POINT
-2.160000e+02 9.000000e+01   1.461240e+00  4.960000e+02  3.803502e+03  -1.000000e+00  5.095000e+02  1.650036e+01
-1.440000e+02 9.000000e+01   1.661338e+00  4.870000e+02  1.703048e+03  -1.000000e+00  5.055000e+02  1.691853e+03
-7.200000e+01 9.000000e+01   1.200235e+00  4.900000e+02  4.373407e+03  -1.000000e+00  5.080000e+02  5.155785e+02
0.000000e+00 9.000000e+01   1.200235e+00  5.010000e+02  9.874162e+02  -1.000000e+00  5.115000e+02  3.423160e+02
7.200000e+01 9.000000e+01   1.461240e+00  5.140000e+02  2.727064e+02  -1.000000e+00  5.145000e+02  8.646431e+02
1.440000e+02 9.000000e+01   1.461240e+00  4.960000e+02  3.803502e+03  -1.000000e+00  5.095000e+02  1.650036e+01
-2.160000e+02 5.400000e+01   1.396710e+00  5.064923e+02  4.266073e+00  -1.000000e+00  4.780231e+02  4.455386e+01
-1.440000e+02 5.400000e+01   1.396710e+00  5.061756e+02  1.125977e+01  -1.000000e+00  4.801738e+02  1.384608e+01
-7.200000e+01 5.400000e+01   1.160698e+00  5.124318e+02  3.231650e+01  -1.000000e+00  5.007639e+02  1.806386e+02
0.000000e+00 5.400000e+01   1.160698e+00  4.995528e+02  3.912145e+02  -1.000000e+00  5.082438e+02  4.065054e+01
7.200000e+01 5.400000e+01   1.461240e+00  5.118292e+02  7.819721e+00  -1.000000e+00  4.956862e+02  5.954670e+01
1.440000e+02 5.400000e+01   1.396710e+00  5.064923e+02  4.266073e+00  -1.000000e+00  4.780231e+02  4.455386e+01
-2.160000e+02 1.800000e+01   1.396710e+00  5.058013e+02  4.347302e+01  -1.000000e+00  4.864531e+02  1.272499e+02
-1.440000e+02 1.800000e+01   1.396710e+00  5.021679e+02  3.276979e+02  -1.000000e+00  4.862544e+02  1.826511e+03
-7.200000e+01 1.800000e+01   1.160698e+00  4.999941e+02  7.720695e+02  -1.000000e+00  4.963416e+02  2.571476e+03
0.000000e+00 1.800000e+01   1.160698e+00  4.965125e+02  6.440832e+02  -1.000000e+00  5.070000e+02  8.714290e+02
7.200000e+01 1.800000e+01   1.488286e+00  5.090652e+02  7.058570e+02  -1.000000e+00  4.937515e+02  2.156152e+03
1.440000e+02 1.800000e+01   1.396710e+00  5.058013e+02  4.347302e+01  -1.000000e+00  4.864531e+02  1.272499e+02
-2.160000e+02 -1.800000e+01   1.491598e+00  5.022236e+02  1.474482e+03  -1.000000e+00  4.989751e+02  2.716567e+03
-1.440000e+02 -1.800000e+01   1.977311e+00  4.981430e+02  2.343831e+01  -1.000000e+00  5.007889e+02  3.141599e+02
-7.200000e+01 -1.800000e+01   1.230772e+00  4.941803e+02  1.901092e+03  -1.000000e+00  5.003666e+02  2.554572e+03
0.000000e+00 -1.800000e+01   1.196066e+00  4.998666e+02  8.481394e+02  -1.000000e+00  5.061056e+02  1.795280e+01
7.200000e+01 -1.800000e+01   1.196066e+00  5.016862e+02  1.111961e+01  -1.000000e+00  4.944223e+02  1.236876e+03
1.440000e+02 -1.800000e+01   1.491598e+00  5.022236e+02  1.474482e+03  -1.000000e+00  4.989751e+02  2.716567e+03
-2.160000e+02 -5.400000e+01   1.225464e+00  5.077515e+02  4.614935e+03  -1.000000e+00  4.959348e+02  6.876822e+02
-1.440000e+02 -5.400000e+01   1.225464e+00  5.062966e+02  1.987028e+02  -1.000000e+00  5.006507e+02  1.540518e+03
-7.200000e+01 -5.400000e+01   1.230772e+00  5.063416e+02  9.697493e+02  -1.000000e+00  5.002284e+02  4.888691e+03
0.000000e+00 -5.400000e+01   1.196066e+00  5.048416e+02  1.053464e+03  -1.000000e+00  4.993339e+02  2.780600e+02
7.200000e+01 -5.400000e+01   1.196066e+00  4.974021e+02  5.182276e+00  -1.000000e+00  4.937313e+02  3.006613e+03
1.440000e+02 -5.400000e+01   1.225464e+00  5.077515e+02  4.614935e+03  -1.000000e+00  4.959348e+02  6.876822e+02
-2.160000e+02 -9.000000e+01   1.225464e+00  5.215000e+02  5.182276e+00  -1.000000e+00  5.010000e+02  3.006613e+03
-1.440000e+02 -9.000000e+01   1.225464e+00  5.110000e+02  4.614935e+03  -1.000000e+00  4.945000e+02  6.876822e+02
-7.200000e+01 -9.000000e+01   1.239935e+00  5.020000e+02  1.987028e+02  -1.000000e+00  4.825000e+02  1.540518e+03
0.000000e+00 -9.000000e+01   1.490093e+00  5.005000e+02  9.697493e+02  -1.000000e+00  4.845000e+02  4.888691e+03
7.200000e+01 -9.000000e+01   1.233623e+00  5.050000e+02  1.053464e+03  -1.000000e+00  5.035000e+02  2.780600e+02
1.440000e+02 -9.000000e+01   1.225464e+00  5.215000e+02  5.182276e+00  -1.000000e+00  5.010000e+02  3.006613e+03
