VARIABLES="Lon", "Lat",  "(1.000000e+02[MeV]<E<1.096478e+02[MeV])",  "(1.096478e+02[MeV]<E<1.202264e+02[MeV])",  "(1.202264e+02[MeV]<E<1.318257e+02[MeV])",  "(1.318257e+02[MeV]<E<1.445440e+02[MeV])",  "(1.445440e+02[MeV]<E<1.584893e+02[MeV])",  "(1.584893e+02[MeV]<E<1.737801e+02[MeV])",  "(1.737801e+02[MeV]<E<1.905461e+02[MeV])",  "(1.905461e+02[MeV]<E<2.089296e+02[MeV])",  "(2.089296e+02[MeV]<E<2.290868e+02[MeV])",  "(2.290868e+02[MeV]<E<2.511886e+02[MeV])",  "(2.511886e+02[MeV]<E<2.754229e+02[MeV])",  "(2.754229e+02[MeV]<E<3.019952e+02[MeV])",  "(3.019952e+02[MeV]<E<3.311311e+02[MeV])",  "(3.311311e+02[MeV]<E<3.630781e+02[MeV])",  "(3.630781e+02[MeV]<E<3.981072e+02[MeV])",  "(3.981072e+02[MeV]<E<4.365158e+02[MeV])",  "(4.365158e+02[MeV]<E<4.786301e+02[MeV])",  "(4.786301e+02[MeV]<E<5.248075e+02[MeV])",  "(5.248075e+02[MeV]<E<5.754399e+02[MeV])",  "(5.754399e+02[MeV]<E<6.309573e+02[MeV])",  "(6.309573e+02[MeV]<E<6.918310e+02[MeV])",  "(6.918310e+02[MeV]<E<7.585776e+02[MeV])",  "(7.585776e+02[MeV]<E<8.317638e+02[MeV])",  "(8.317638e+02[MeV]<E<9.120108e+02[MeV])",  "(9.120108e+02[MeV]<E<1.000000e+03[MeV])",  "(1.000000e+03[MeV]<E<1.096478e+03[MeV])",  "(1.096478e+03[MeV]<E<1.202264e+03[MeV])",  "(1.202264e+03[MeV]<E<1.318257e+03[MeV])",  "(1.318257e+03[MeV]<E<1.445440e+03[MeV])",  "(1.445440e+03[MeV]<E<1.584893e+03[MeV])",  "(1.584893e+03[MeV]<E<1.737801e+03[MeV])",  "(1.737801e+03[MeV]<E<1.905461e+03[MeV])",  "(1.905461e+03[MeV]<E<2.089296e+03[MeV])",  "(2.089296e+03[MeV]<E<2.290868e+03[MeV])",  "(2.290868e+03[MeV]<E<2.511886e+03[MeV])",  "(2.511886e+03[MeV]<E<2.754229e+03[MeV])",  "(2.754229e+03[MeV]<E<3.019952e+03[MeV])",  "(3.019952e+03[MeV]<E<3.311311e+03[MeV])",  "(3.311311e+03[MeV]<E<3.630781e+03[MeV])",  "(3.630781e+03[MeV]<E<3.981072e+03[MeV])",  "(3.981072e+03[MeV]<E<4.365158e+03[MeV])",  "(4.365158e+03[MeV]<E<4.786301e+03[MeV])",  "(4.786301e+03[MeV]<E<5.248075e+03[MeV])",  "(5.248075e+03[MeV]<E<5.754399e+03[MeV])",  "(5.754399e+03[MeV]<E<6.309573e+03[MeV])",  "(6.309573e+03[MeV]<E<6.918310e+03[MeV])",  "(6.918310e+03[MeV]<E<7.585776e+03[MeV])",  "(7.585776e+03[MeV]<E<8.317638e+03[MeV])",  "(8.317638e+03[MeV]<E<9.120108e+03[MeV])",  "(9.120108e+03[MeV]<E<1.000000e+04[MeV])"
ZONE I=5, J=6, DATAPACKING=POINT
0.000000e+00 9.000000e+01   5.300555e+19  7.964531e+19  8.224492e+19  7.330392e+19  1.132021e+20  1.243113e+20  1.140299e+20  1.249512e+20  9.717680e+19  1.221566e+20  1.157495e+20  1.665718e+20  1.810125e+20  1.383808e+20  1.898980e+20  1.841240e+20  1.986506e+20  1.473290e+20  1.843547e+20  1.624936e+20  2.003597e+20  1.455129e+20  1.575388e+20  1.766237e+20  1.211959e+20  1.298682e+20  1.187655e+20  1.555128e+20  1.025673e+20  9.389833e+19  8.757295e+19  7.535876e+19  7.507256e+19  6.579597e+19  6.020543e+19  5.380806e+19  4.729299e+19  3.895896e+19  3.733740e+19  2.567060e+19  2.458783e+19  1.568183e+19  1.733968e+19  1.234900e+19  1.057677e+19  8.649866e+18  7.528098e+18  5.763733e+18  4.955190e+18  3.645783e+18
7.200000e+01 9.000000e+01   4.417129e+19  6.690206e+19  9.252554e+19  5.497794e+19  8.197392e+19  9.116162e+19  9.210108e+19  9.255643e+19  1.166122e+20  1.476059e+20  1.578402e+20  1.289588e+20  1.535864e+20  1.605217e+20  1.508013e+20  2.008625e+20  1.545060e+20  1.636989e+20  1.843547e+20  1.269481e+20  2.003597e+20  1.408190e+20  8.552107e+19  1.766237e+20  1.251055e+20  1.118310e+20  8.907410e+19  1.226159e+20  1.106648e+20  8.186008e+19  7.262147e+19  6.782288e+19  7.507256e+19  5.864424e+19  5.037597e+19  5.697324e+19  4.183611e+19  3.284775e+19  3.406219e+19  2.676296e+19  1.684722e+19  1.835921e+19  1.888786e+19  1.182351e+19  1.036092e+19  7.767226e+18  6.659472e+18  5.424690e+18  4.859897e+18  3.568213e+18
1.440000e+02 9.000000e+01   3.533703e+19  4.141556e+19  5.140308e+19  5.131274e+19  5.855280e+19  5.801194e+19  4.824342e+19  5.553386e+19  7.774144e+19  9.161746e+19  1.420562e+20  9.134582e+19  9.324887e+19  1.051694e+20  6.702281e+19  1.004313e+20  1.269157e+20  1.855254e+20  1.211474e+20  1.015585e+20  1.026233e+20  1.173491e+20  6.751664e+19  1.429811e+20  6.646227e+19  6.132665e+19  7.917698e+19  5.981263e+19  7.827507e+19  5.296829e+19  6.194184e+19  5.651907e+19  4.080031e+19  4.434076e+19  3.563178e+19  4.536758e+19  3.274130e+19  2.902824e+19  2.423655e+19  1.911640e+19  1.229391e+19  1.874170e+19  1.672040e+19  1.103528e+19  7.770687e+18  7.414171e+18  4.777447e+18  5.085647e+18  4.859897e+18  3.413073e+18
2.160000e+02 9.000000e+01   4.417129e+19  2.548650e+19  5.825682e+19  4.398235e+19  4.293872e+19  4.972452e+19  5.262919e+19  6.478950e+19  5.830608e+19  4.580873e+19  1.104881e+20  9.671911e+19  7.679319e+19  6.088754e+19  6.702281e+19  8.369272e+19  1.213976e+20  1.309591e+20  7.374189e+19  8.632474e+19  7.330232e+19  1.220431e+20  8.101996e+19  7.990122e+19  6.646227e+19  6.493410e+19  5.938273e+19  4.485947e+19  5.668195e+19  6.259889e+19  5.339814e+19  5.651907e+19  3.264024e+19  5.149250e+19  3.317442e+19  4.325746e+19  2.000857e+19  2.597264e+19  2.751176e+19  1.857022e+19  1.411523e+19  1.644680e+19  1.393367e+19  8.933321e+18  6.907277e+18  8.296810e+18  5.211760e+18  5.311675e+18  4.383437e+18  3.413073e+18
2.880000e+02 9.000000e+01   6.478456e+19  4.778718e+19  6.511056e+19  6.963872e+19  7.807040e+19  9.116162e+19  9.648685e+19  1.064399e+20  7.774144e+19  5.089859e+19  1.262722e+20  1.182122e+20  1.097046e+20  8.856369e+19  1.172899e+20  1.339084e+20  1.820964e+20  1.364157e+20  1.527511e+20  1.624936e+20  1.368310e+20  1.502069e+20  1.395344e+20  1.303651e+20  1.133768e+20  9.379370e+19  1.088683e+20  9.570021e+19  6.208023e+19  9.871363e+19  8.757295e+19  6.782288e+19  5.385640e+19  6.293528e+19  5.160465e+19  4.747770e+19  3.456026e+19  3.208385e+19  3.406219e+19  2.785533e+19  2.048986e+19  1.568183e+19  1.548185e+19  1.156077e+19  9.713359e+18  8.826394e+18  7.383327e+18  5.311675e+18  4.002268e+18  3.645783e+18
0.000000e+00 3.686990e+01   5.300555e+19  7.964531e+19  8.224492e+19  7.330392e+19  1.132021e+20  1.243113e+20  1.140299e+20  1.249512e+20  9.717680e+19  1.221566e+20  1.157495e+20  1.665718e+20  1.810125e+20  1.383808e+20  1.898980e+20  1.841240e+20  1.986506e+20  1.473290e+20  1.843547e+20  1.624936e+20  2.003597e+20  1.455129e+20  1.575388e+20  1.766237e+20  1.211959e+20  1.298682e+20  1.187655e+20  1.555128e+20  1.025673e+20  9.389833e+19  8.757295e+19  7.535876e+19  7.507256e+19  6.579597e+19  6.020543e+19  5.380806e+19  5.002143e+19  4.048676e+19  3.930252e+19  3.331716e+19  2.731981e+19  1.874170e+19  2.043605e+19  1.629017e+19  1.575723e+19  1.200390e+19  1.245032e+19  9.154164e+18  8.290413e+18  6.438297e+18
7.200000e+01 3.686990e+01   4.417129e+19  6.690206e+19  9.252554e+19  5.497794e+19  8.197392e+19  9.116162e+19  9.210108e+19  9.255643e+19  1.166122e+20  1.476059e+20  1.578402e+20  1.289588e+20  1.535864e+20  1.605217e+20  1.508013e+20  2.008625e+20  1.545060e+20  1.636989e+20  1.843547e+20  1.269481e+20  2.003597e+20  1.408190e+20  8.552107e+19  1.766237e+20  1.251055e+20  1.118310e+20  8.907410e+19  1.226159e+20  1.106648e+20  8.186008e+19  7.262147e+19  6.782288e+19  7.507256e+19  5.864424e+19  5.037597e+19  5.697324e+19  4.274559e+19  3.284775e+19  3.602731e+19  3.058625e+19  1.866854e+19  2.103660e+19  2.043605e+19  1.445096e+19  1.273529e+19  1.041514e+19  1.085783e+19  7.684977e+18  8.099829e+18  6.360727e+18
1.440000e+02 3.686990e+01   3.533703e+19  4.141556e+19  5.140308e+19  5.131274e+19  5.855280e+19  5.801194e+19  4.824342e+19  5.553386e+19  7.774144e+19  9.161746e+19  1.420562e+20  9.134582e+19  9.324887e+19  1.051694e+20  6.702281e+19  1.004313e+20  1.269157e+20  1.855254e+20  1.211474e+20  1.015585e+20  1.026233e+20  1.173491e+20  6.751664e+19  1.429811e+20  6.646227e+19  6.132665e+19  7.917698e+19  5.981263e+19  7.827507e+19  5.296829e+19  6.194184e+19  5.651907e+19  4.080031e+19  4.434076e+19  3.563178e+19  4.536758e+19  3.274130e+19  2.902824e+19  2.554664e+19  1.911640e+19  1.274924e+19  1.950666e+19  1.733968e+19  1.182351e+19  8.634097e+18  8.649866e+18  6.659472e+18  6.328805e+18  7.051616e+18  5.585029e+18
2.160000e+02 3.686990e+01   4.417129e+19  2.548650e+19  5.825682e+19  4.398235e+19  4.293872e+19  4.972452e+19  5.262919e+19  6.478950e+19  5.830608e+19  4.580873e+19  1.104881e+20  9.671911e+19  7.679319e+19  6.088754e+19  6.702281e+19  8.369272e+19  1.213976e+20  1.309591e+20  7.374189e+19  8.632474e+19  7.330232e+19  1.220431e+20  8.101996e+19  7.990122e+19  6.646227e+19  6.493410e+19  5.938273e+19  4.485947e+19  5.668195e+19  6.259889e+19  5.339814e+19  5.651907e+19  3.264024e+19  5.149250e+19  3.317442e+19  4.325746e+19  2.000857e+19  2.597264e+19  2.751176e+19  1.857022e+19  1.457056e+19  1.759425e+19  1.455294e+19  9.196066e+18  7.770687e+18  1.041514e+19  7.238556e+18  6.893876e+18  5.717526e+18  5.119610e+18
2.880000e+02 3.686990e+01   6.478456e+19  4.778718e+19  6.511056e+19  6.963872e+19  7.807040e+19  9.116162e+19  9.648685e+19  1.064399e+20  7.774144e+19  5.089859e+19  1.262722e+20  1.182122e+20  1.097046e+20  8.856369e+19  1.172899e+20  1.339084e+20  1.820964e+20  1.364157e+20  1.527511e+20  1.624936e+20  1.368310e+20  1.502069e+20  1.395344e+20  1.303651e+20  1.133768e+20  9.379370e+19  1.088683e+20  9.570021e+19  6.208023e+19  9.871363e+19  8.757295e+19  6.782288e+19  5.385640e+19  6.293528e+19  5.160465e+19  4.747770e+19  3.637922e+19  3.361165e+19  3.537227e+19  3.167861e+19  2.231118e+19  1.797673e+19  1.826859e+19  1.392547e+19  1.424626e+19  1.253348e+19  1.114738e+19  8.589092e+18  6.670447e+18  6.128018e+18
0.000000e+00 1.153696e+01   0.000000e+00  0.000000e+00  0.000000e+00  0.000000e+00  0.000000e+00  0.000000e+00  0.000000e+00  0.000000e+00  0.000000e+00  0.000000e+00  0.000000e+00  0.000000e+00  0.000000e+00  0.000000e+00  0.000000e+00  0.000000e+00  0.000000e+00  0.000000e+00  0.000000e+00  0.000000e+00  0.000000e+00  0.000000e+00  0.000000e+00  0.000000e+00  0.000000e+00  0.000000e+00  0.000000e+00  0.000000e+00  0.000000e+00  0.000000e+00  0.000000e+00  0.000000e+00  0.000000e+00  0.000000e+00  0.000000e+00  0.000000e+00  2.728442e+18  1.527802e+18  1.965126e+18  7.646561e+18  2.731981e+18  3.059869e+18  3.096371e+18  3.941171e+18  5.180458e+18  4.060141e+18  5.646074e+18  4.859618e+18  5.241066e+18  4.188772e+18
7.200000e+01 1.153696e+01   0.000000e+00  0.000000e+00  0.000000e+00  0.000000e+00  0.000000e+00  0.000000e+00  0.000000e+00  0.000000e+00  0.000000e+00  0.000000e+00  0.000000e+00  0.000000e+00  0.000000e+00  0.000000e+00  0.000000e+00  0.000000e+00  0.000000e+00  0.000000e+00  0.000000e+00  0.000000e+00  0.000000e+00  0.000000e+00  0.000000e+00  0.000000e+00  0.000000e+00  0.000000e+00  0.000000e+00  0.000000e+00  0.000000e+00  0.000000e+00  0.000000e+00  0.000000e+00  0.000000e+00  0.000000e+00  0.000000e+00  0.000000e+00  9.094806e+17  0.000000e+00  1.965126e+18  3.823281e+18  1.821321e+18  2.677385e+18  1.548185e+18  2.627447e+18  2.374377e+18  2.647918e+18  4.487905e+18  2.825359e+18  4.002268e+18  3.335503e+18
1.440000e+02 1.153696e+01   0.000000e+00  0.000000e+00  0.000000e+00  0.000000e+00  0.000000e+00  0.000000e+00  0.000000e+00  0.000000e+00  0.000000e+00  0.000000e+00  0.000000e+00  0.000000e+00  0.000000e+00  0.000000e+00  0.000000e+00  0.000000e+00  0.000000e+00  0.000000e+00  0.000000e+00  0.000000e+00  0.000000e+00  0.000000e+00  0.000000e+00  0.000000e+00  0.000000e+00  0.000000e+00  0.000000e+00  0.000000e+00  0.000000e+00  0.000000e+00  0.000000e+00  0.000000e+00  0.000000e+00  0.000000e+00  0.000000e+00  0.000000e+00  0.000000e+00  0.000000e+00  1.310084e+18  0.000000e+00  4.553301e+17  7.649672e+17  6.192742e+17  7.882342e+17  8.634097e+17  1.235695e+18  1.882025e+18  1.582201e+18  3.049347e+18  3.025224e+18
2.160000e+02 1.153696e+01   0.000000e+00  0.000000e+00  0.000000e+00  0.000000e+00  0.000000e+00  0.000000e+00  0.000000e+00  0.000000e+00  0.000000e+00  0.000000e+00  0.000000e+00  0.000000e+00  0.000000e+00  0.000000e+00  0.000000e+00  0.000000e+00  0.000000e+00  0.000000e+00  0.000000e+00  0.000000e+00  0.000000e+00  0.000000e+00  0.000000e+00  0.000000e+00  0.000000e+00  0.000000e+00  0.000000e+00  0.000000e+00  0.000000e+00  0.000000e+00  0.000000e+00  0.000000e+00  0.000000e+00  0.000000e+00  0.000000e+00  0.000000e+00  0.000000e+00  0.000000e+00  0.000000e+00  0.000000e+00  4.553301e+17  1.147451e+18  6.192742e+17  2.627447e+17  8.634097e+17  2.118334e+18  2.171567e+18  2.373302e+18  2.287011e+18  3.102794e+18
2.880000e+02 1.153696e+01   0.000000e+00  0.000000e+00  0.000000e+00  0.000000e+00  0.000000e+00  0.000000e+00  0.000000e+00  0.000000e+00  0.000000e+00  0.000000e+00  0.000000e+00  0.000000e+00  0.000000e+00  0.000000e+00  0.000000e+00  0.000000e+00  0.000000e+00  0.000000e+00  0.000000e+00  0.000000e+00  0.000000e+00  0.000000e+00  0.000000e+00  0.000000e+00  0.000000e+00  0.000000e+00  0.000000e+00  0.000000e+00  0.000000e+00  0.000000e+00  0.000000e+00  0.000000e+00  0.000000e+00  0.000000e+00  0.000000e+00  0.000000e+00  1.818961e+18  1.527802e+18  1.310084e+18  3.823281e+18  1.821321e+18  2.294902e+18  2.786734e+18  2.364703e+18  4.532901e+18  4.413197e+18  4.343134e+18  4.633589e+18  4.478729e+18  4.033632e+18
0.000000e+00 -1.153696e+01   0.000000e+00  0.000000e+00  0.000000e+00  0.000000e+00  0.000000e+00  0.000000e+00  0.000000e+00  0.000000e+00  0.000000e+00  0.000000e+00  0.000000e+00  0.000000e+00  0.000000e+00  0.000000e+00  0.000000e+00  0.000000e+00  0.000000e+00  0.000000e+00  0.000000e+00  0.000000e+00  0.000000e+00  0.000000e+00  0.000000e+00  0.000000e+00  0.000000e+00  0.000000e+00  0.000000e+00  0.000000e+00  0.000000e+00  0.000000e+00  0.000000e+00  0.000000e+00  0.000000e+00  0.000000e+00  0.000000e+00  0.000000e+00  9.094806e+17  0.000000e+00  6.550420e+17  0.000000e+00  1.821321e+18  2.677385e+18  3.406008e+18  4.729405e+18  4.101196e+18  4.942780e+18  3.619278e+18  5.085647e+18  4.764605e+18  4.266342e+18
7.200000e+01 -1.153696e+01   0.000000e+00  0.000000e+00  0.000000e+00  0.000000e+00  0.000000e+00  0.000000e+00  0.000000e+00  0.000000e+00  0.000000e+00  0.000000e+00  0.000000e+00  0.000000e+00  0.000000e+00  0.000000e+00  0.000000e+00  0.000000e+00  0.000000e+00  0.000000e+00  0.000000e+00  0.000000e+00  0.000000e+00  0.000000e+00  0.000000e+00  0.000000e+00  0.000000e+00  0.000000e+00  0.000000e+00  0.000000e+00  0.000000e+00  0.000000e+00  0.000000e+00  0.000000e+00  0.000000e+00  0.000000e+00  0.000000e+00  0.000000e+00  1.818961e+18  1.527802e+18  1.965126e+18  2.730915e+18  1.821321e+18  3.059869e+18  3.406008e+18  3.941171e+18  3.885344e+18  3.707085e+18  2.605880e+18  3.842488e+18  3.144640e+18  3.413073e+18
1.440000e+02 -1.153696e+01   0.000000e+00  0.000000e+00  0.000000e+00  0.000000e+00  0.000000e+00  0.000000e+00  0.000000e+00  0.000000e+00  0.000000e+00  0.000000e+00  0.000000e+00  0.000000e+00  0.000000e+00  0.000000e+00  0.000000e+00  0.000000e+00  0.000000e+00  0.000000e+00  0.000000e+00  0.000000e+00  0.000000e+00  0.000000e+00  0.000000e+00  0.000000e+00  0.000000e+00  0.000000e+00  0.000000e+00  0.000000e+00  0.000000e+00  4.815299e+18  4.271851e+18  3.767938e+18  4.896037e+18  2.860694e+18  8.600776e+18  9.495540e+18  6.366364e+18  3.819505e+18  7.205462e+18  6.008012e+18  4.097971e+18  5.737254e+18  4.954193e+18  4.729405e+18  4.317048e+18  3.883613e+18  3.619278e+18  4.633589e+18  3.716392e+18  3.335503e+18
2.160000e+02 -1.153696e+01   0.000000e+00  0.000000e+00  0.000000e+00  0.000000e+00  0.000000e+00  0.000000e+00  0.000000e+00  0.000000e+00  0.000000e+00  0.000000e+00  0.000000e+00  0.000000e+00  0.000000e+00  0.000000e+00  0.000000e+00  0.000000e+00  0.000000e+00  0.000000e+00  0.000000e+00  0.000000e+00  0.000000e+00  0.000000e+00  0.000000e+00  0.000000e+00  0.000000e+00  0.000000e+00  0.000000e+00  0.000000e+00  0.000000e+00  4.815299e+18  4.271851e+18  5.651907e+18  6.528049e+18  5.721389e+18  8.600776e+18  1.055060e+19  5.456883e+18  2.291703e+18  7.860504e+18  6.008012e+18  5.008632e+18  4.972287e+18  5.263830e+18  5.780384e+18  4.532901e+18  6.178476e+18  5.356531e+18  4.407560e+18  3.716392e+18  3.878492e+18
2.880000e+02 -1.153696e+01   0.000000e+00  0.000000e+00  0.000000e+00  0.000000e+00  0.000000e+00  0.000000e+00  0.000000e+00  0.000000e+00  0.000000e+00  0.000000e+00  0.000000e+00  0.000000e+00  0.000000e+00  0.000000e+00  0.000000e+00  0.000000e+00  0.000000e+00  0.000000e+00  0.000000e+00  0.000000e+00  0.000000e+00  0.000000e+00  0.000000e+00  0.000000e+00  0.000000e+00  0.000000e+00  0.000000e+00  0.000000e+00  0.000000e+00  0.000000e+00  0.000000e+00  1.883969e+18  1.632012e+18  2.860694e+18  0.000000e+00  1.055060e+18  0.000000e+00  0.000000e+00  3.275210e+18  2.730915e+18  2.731981e+18  2.677385e+18  2.786734e+18  4.992150e+18  3.021934e+18  6.001948e+18  5.066989e+18  5.085647e+18  5.050482e+18  4.033632e+18
0.000000e+00 -3.686990e+01   2.061327e+19  1.911487e+19  2.056123e+19  1.832598e+19  2.732464e+19  3.314968e+19  3.508613e+19  4.627821e+19  6.316492e+19  5.598844e+19  5.261340e+19  5.910612e+19  4.936705e+19  7.749323e+19  6.143758e+19  8.369272e+19  9.932530e+19  8.184945e+19  1.053456e+20  7.109096e+19  7.818915e+19  1.173491e+20  1.260311e+20  5.887458e+19  9.382909e+19  9.379370e+19  1.022703e+20  7.775642e+19  6.208023e+19  4.815299e+19  5.553407e+19  6.970685e+19  4.080031e+19  5.006215e+19  3.808915e+19  4.325746e+19  4.092662e+19  3.361165e+19  2.423655e+19  1.911640e+19  1.866854e+19  1.797673e+19  1.455294e+19  1.891762e+19  1.446211e+19  1.306306e+19  8.975809e+18  8.250049e+18  6.575155e+18  5.817738e+18
7.200000e+01 -3.686990e+01   4.711605e+19  7.327368e+19  5.482995e+19  5.131274e+19  7.416688e+19  6.215565e+19  7.894378e+19  7.867296e+19  1.117533e+20  9.161746e+19  7.892010e+19  1.128390e+20  8.776364e+19  1.549865e+20  1.340456e+20  1.171698e+20  1.545060e+20  1.036760e+20  1.158801e+20  1.117144e+20  1.319442e+20  1.642888e+20  1.305322e+20  1.051332e+20  1.094673e+20  1.370831e+20  1.352607e+20  8.074705e+19  7.827507e+19  6.982184e+19  7.475740e+19  8.101066e+19  5.712043e+19  4.863181e+19  4.791861e+19  4.431252e+19  3.728870e+19  2.902824e+19  2.816681e+19  2.730915e+19  2.231118e+19  1.912418e+19  2.043605e+19  1.812939e+19  1.273529e+19  1.288653e+19  9.265352e+18  8.363063e+18  6.861032e+18  6.593437e+18
1.440000e+02 -3.686990e+01   9.717684e+19  1.019460e+20  1.028062e+20  1.429426e+20  1.288162e+20  1.408861e+20  1.403445e+20  1.295790e+20  1.409064e+20  1.781451e+20  1.315335e+20  1.719451e+20  1.700421e+20  1.826626e+20  2.401651e+20  1.785445e+20  2.096867e+20  2.018953e+20  1.632856e+20  2.081950e+20  1.856992e+20  2.206164e+20  1.530377e+20  2.186770e+20  1.681105e+20  1.731576e+20  1.451578e+20  1.345784e+20  1.268596e+20  1.155672e+20  1.067963e+20  9.231448e+19  9.465671e+19  7.151736e+19  7.372093e+19  5.486312e+19  4.911195e+19  3.819505e+19  3.995756e+19  3.604807e+19  2.458783e+19  2.486143e+19  2.322278e+19  1.760390e+19  1.251944e+19  1.394570e+19  1.071306e+19  1.017129e+19  7.623369e+18  6.283158e+18
2.160000e+02 -3.686990e+01   8.245308e+19  7.327368e+19  7.881805e+19  1.319471e+20  1.132021e+20  1.367424e+20  1.184157e+20  9.255643e+19  1.214710e+20  1.628755e+20  1.367948e+20  1.558252e+20  1.755273e+20  1.328455e+20  2.122389e+20  1.785445e+20  1.876145e+20  2.455483e+20  1.843547e+20  1.675716e+20  1.563783e+20  1.924526e+20  1.575388e+20  2.060610e+20  1.563818e+20  1.551204e+20  1.352607e+20  1.644847e+20  1.214613e+20  1.107519e+20  1.067963e+20  1.055023e+20  9.139268e+19  8.152979e+19  7.372093e+19  5.064288e+19  5.274987e+19  3.895896e+19  3.471723e+19  3.714044e+19  2.549849e+19  2.486143e+19  1.919750e+19  1.812939e+19  1.338285e+19  1.624056e+19  1.259509e+19  9.041149e+18  6.765740e+18  5.507459e+18
2.880000e+02 -3.686990e+01   1.766852e+19  3.185812e+19  2.398810e+19  2.932157e+19  4.684224e+19  4.972452e+19  5.701496e+19  5.090604e+19  5.830608e+19  8.143774e+19  7.365876e+19  9.134582e+19  1.097046e+20  7.195800e+19  1.117047e+20  1.115903e+20  1.324337e+20  1.527856e+20  1.158801e+20  9.140266e+19  9.284961e+19  1.220431e+20  1.260311e+20  9.251720e+19  9.773864e+19  1.190459e+20  6.927986e+19  9.869084e+19  7.557593e+19  6.019124e+19  6.621370e+19  8.477860e+19  5.222439e+19  6.579597e+19  4.668993e+19  4.114734e+19  4.001714e+19  3.895896e+19  2.620168e+19  2.348587e+19  2.003453e+19  2.103660e+19  1.238548e+19  1.655292e+19  1.338285e+19  1.447529e+19  1.056829e+19  8.702106e+18  6.861032e+18  5.585029e+18
0.000000e+00 -9.000000e+01   2.061327e+19  1.911487e+19  2.056123e+19  1.832598e+19  2.732464e+19  3.314968e+19  3.508613e+19  4.627821e+19  6.316492e+19  5.598844e+19  5.261340e+19  5.910612e+19  4.936705e+19  7.749323e+19  6.143758e+19  8.369272e+19  9.932530e+19  8.184945e+19  1.053456e+20  7.109096e+19  7.818915e+19  1.173491e+20  1.260311e+20  5.887458e+19  9.382909e+19  9.379370e+19  1.022703e+20  7.775642e+19  6.208023e+19  4.815299e+19  5.553407e+19  6.970685e+19  4.080031e+19  5.006215e+19  3.808915e+19  4.325746e+19  4.001714e+19  3.361165e+19  2.358151e+19  1.911640e+19  1.684722e+19  1.529934e+19  1.114693e+19  1.418822e+19  1.036092e+19  8.826394e+18  6.080387e+18  4.633589e+18  3.716392e+18  2.947654e+18
7.200000e+01 -9.000000e+01   4.711605e+19  7.327368e+19  5.482995e+19  5.131274e+19  7.416688e+19  6.215565e+19  7.894378e+19  7.867296e+19  1.117533e+20  9.161746e+19  7.892010e+19  1.128390e+20  8.776364e+19  1.549865e+20  1.340456e+20  1.171698e+20  1.545060e+20  1.036760e+20  1.158801e+20  1.117144e+20  1.319442e+20  1.642888e+20  1.305322e+20  1.051332e+20  1.094673e+20  1.370831e+20  1.352607e+20  8.074705e+19  7.827507e+19  6.982184e+19  7.475740e+19  8.101066e+19  5.712043e+19  4.863181e+19  4.791861e+19  4.431252e+19  3.546974e+19  2.750044e+19  2.620168e+19  2.457823e+19  2.048986e+19  1.606431e+19  1.703004e+19  1.418822e+19  8.849949e+18  9.179449e+18  6.949014e+18  5.085647e+18  4.478729e+18  3.723353e+18
1.440000e+02 -9.000000e+01   9.717684e+19  1.019460e+20  1.028062e+20  1.429426e+20  1.288162e+20  1.408861e+20  1.403445e+20  1.295790e+20  1.409064e+20  1.781451e+20  1.315335e+20  1.719451e+20  1.700421e+20  1.826626e+20  2.401651e+20  1.785445e+20  2.096867e+20  2.018953e+20  1.632856e+20  2.081950e+20  1.856992e+20  2.206164e+20  1.530377e+20  2.186770e+20  1.681105e+20  1.731576e+20  1.451578e+20  1.345784e+20  1.268596e+20  1.107519e+20  1.025244e+20  8.854654e+19  8.976067e+19  6.865667e+19  6.512016e+19  4.536758e+19  4.274559e+19  3.437555e+19  3.275210e+19  3.004006e+19  2.048986e+19  1.912418e+19  1.826859e+19  1.287449e+19  8.202392e+18  1.006209e+19  7.093785e+18  5.876747e+18  4.764605e+18  3.800922e+18
2.160000e+02 -9.000000e+01   8.245308e+19  7.327368e+19  7.881805e+19  1.319471e+20  1.132021e+20  1.367424e+20  1.184157e+20  9.255643e+19  1.214710e+20  1.628755e+20  1.367948e+20  1.558252e+20  1.755273e+20  1.328455e+20  2.122389e+20  1.785445e+20  1.876145e+20  2.455483e+20  1.843547e+20  1.675716e+20  1.563783e+20  1.924526e+20  1.575388e+20  2.060610e+20  1.563818e+20  1.551204e+20  1.352607e+20  1.644847e+20  1.214613e+20  1.059366e+20  1.025244e+20  9.985035e+19  8.486464e+19  7.580840e+19  6.512016e+19  4.009228e+19  4.729299e+19  3.666725e+19  2.685672e+19  3.113243e+19  2.048986e+19  1.988915e+19  1.393367e+19  1.234900e+19  8.849949e+18  1.006209e+19  7.383327e+18  5.424690e+18  4.002268e+18  3.025224e+18
2.880000e+02 -9.000000e+01   1.766852e+19  3.185812e+19  2.398810e+19  2.932157e+19  4.684224e+19  4.972452e+19  5.701496e+19  5.090604e+19  5.830608e+19  8.143774e+19  7.365876e+19  9.134582e+19  1.097046e+20  7.195800e+19  1.117047e+20  1.115903e+20  1.324337e+20  1.527856e+20  1.158801e+20  9.140266e+19  9.284961e+19  1.220431e+20  1.260311e+20  9.251720e+19  9.773864e+19  1.190459e+20  6.927986e+19  9.869084e+19  7.557593e+19  6.019124e+19  6.621370e+19  8.289463e+19  5.059238e+19  6.293528e+19  4.668993e+19  4.009228e+19  4.001714e+19  3.895896e+19  2.292647e+19  2.075495e+19  1.730255e+19  1.835921e+19  9.598750e+18  1.156077e+19  1.036092e+19  9.179449e+18  6.080387e+18  4.972632e+18  3.621100e+18  3.102794e+18
