VARIABLES="Lon", "Lat", "Cutoff Rigidity", "Injected Particle Number"
ZONE I=5, J=6, DATAPACKING=POINT
0.000000e+00 9.000000e+01  -1.000000e+00  5.010000e+02 
7.200000e+01 9.000000e+01  -1.000000e+00  5.140000e+02 
1.440000e+02 9.000000e+01  -1.000000e+00  4.960000e+02 
2.160000e+02 9.000000e+01  -1.000000e+00  4.870000e+02 
2.880000e+02 9.000000e+01  -1.000000e+00  4.900000e+02 
0.000000e+00 5.400000e+01  -1.000000e+00  4.995528e+02 
7.200000e+01 5.400000e+01  -1.000000e+00  5.118292e+02 
1.440000e+02 5.400000e+01  -1.000000e+00  5.064923e+02 
2.160000e+02 5.400000e+01  -1.000000e+00  5.061756e+02 
2.880000e+02 5.400000e+01  -1.000000e+00  5.124318e+02 
0.000000e+00 1.800000e+01  -1.000000e+00  4.965125e+02 
7.200000e+01 1.800000e+01  -1.000000e+00  5.090652e+02 
1.440000e+02 1.800000e+01  -1.000000e+00  5.058013e+02 
2.160000e+02 1.800000e+01  -1.000000e+00  5.021679e+02 
2.880000e+02 1.800000e+01  -1.000000e+00  4.999941e+02 
0.000000e+00 -1.800000e+01  -1.000000e+00  4.998666e+02 
7.200000e+01 -1.800000e+01  -1.000000e+00  5.016862e+02 
1.440000e+02 -1.800000e+01  -1.000000e+00  5.022236e+02 
2.160000e+02 -1.800000e+01  -1.000000e+00  4.981430e+02 
2.880000e+02 -1.800000e+01  -1.000000e+00  4.941803e+02 
0.000000e+00 -5.400000e+01  -1.000000e+00  5.048416e+02 
7.200000e+01 -5.400000e+01  -1.000000e+00  4.974021e+02 
1.440000e+02 -5.400000e+01  -1.000000e+00  5.077515e+02 
2.160000e+02 -5.400000e+01  -1.000000e+00  5.062966e+02 
2.880000e+02 -5.400000e+01  -1.000000e+00  5.063416e+02 
0.000000e+00 -9.000000e+01  -1.000000e+00  5.005000e+02 
7.200000e+01 -9.000000e+01  -1.000000e+00  5.050000e+02 
1.440000e+02 -9.000000e+01  -1.000000e+00  5.215000e+02 
2.160000e+02 -9.000000e+01  -1.000000e+00  5.110000e+02 
2.880000e+02 -9.000000e+01  -1.000000e+00  5.020000e+02 
