VARIABLES="Lon", "Lat", "Cutoff Rigidity", "Injected Particle Number"
ZONE I=10, J=11, DATAPACKING=POINT
0.000000e+00 9.000000e+01  4.436499e-01  2.002000e+03 
3.600000e+01 9.000000e+01  4.439431e-01  2.002000e+03 
7.200000e+01 9.000000e+01  4.436253e-01  2.002000e+03 
1.080000e+02 9.000000e+01  4.446136e-01  2.002000e+03 
1.440000e+02 9.000000e+01  4.462502e-01  2.002000e+03 
1.800000e+02 9.000000e+01  4.488359e-01  2.002000e+03 
2.160000e+02 9.000000e+01  4.473424e-01  2.002000e+03 
2.520000e+02 9.000000e+01  4.467029e-01  2.002000e+03 
2.880000e+02 9.000000e+01  4.468143e-01  2.002000e+03 
3.240000e+02 9.000000e+01  4.435866e-01  2.002000e+03 
0.000000e+00 5.313010e+01  5.931456e-01  2.002000e+03 
3.600000e+01 5.313010e+01  5.775859e-01  2.002000e+03 
7.200000e+01 5.313010e+01  5.720176e-01  2.002000e+03 
1.080000e+02 5.313010e+01  8.088952e-01  2.002000e+03 
1.440000e+02 5.313010e+01  1.364079e+00  2.002000e+03 
1.800000e+02 5.313010e+01  1.781757e+00  2.002000e+03 
2.160000e+02 5.313010e+01  1.709018e+00  2.002000e+03 
2.520000e+02 5.313010e+01  1.239893e+00  2.002000e+03 
2.880000e+02 5.313010e+01  7.626901e-01  2.002000e+03 
3.240000e+02 5.313010e+01  5.928197e-01  2.002000e+03 
0.000000e+00 3.686990e+01  2.243769e+00  2.002000e+03 
3.600000e+01 3.686990e+01  2.161594e+00  2.002000e+03 
7.200000e+01 3.686990e+01  2.097229e+00  2.002000e+03 
1.080000e+02 3.686990e+01  2.913976e+00  2.002000e+03 
1.440000e+02 3.686990e+01  4.342352e+00  2.007500e+03 
1.800000e+02 3.686990e+01  4.915227e+00  2.007500e+03 
2.160000e+02 3.686990e+01  4.650303e+00  2.003000e+03 
2.520000e+02 3.686990e+01  3.454098e+00  2.003750e+03 
2.880000e+02 3.686990e+01  2.279481e+00  2.002750e+03 
3.240000e+02 3.686990e+01  2.168237e+00  2.002000e+03 
0.000000e+00 2.357818e+01  5.421098e+00  2.002000e+03 
3.600000e+01 2.357818e+01  5.359669e+00  2.002000e+03 
7.200000e+01 2.357818e+01  5.632522e+00  2.002000e+03 
1.080000e+02 2.357818e+01  7.044171e+00  2.002000e+03 
1.440000e+02 2.357818e+01  8.356845e+00  2.008750e+03 
1.800000e+02 2.357818e+01  8.134217e+00  2.007750e+03 
2.160000e+02 2.357818e+01  7.504158e+00  2.006500e+03 
2.520000e+02 2.357818e+01  6.245236e+00  2.008250e+03 
2.880000e+02 2.357818e+01  5.036826e+00  2.002750e+03 
3.240000e+02 2.357818e+01  5.168157e+00  2.002000e+03 
0.000000e+00 1.153696e+01  7.640385e+00  2.002000e+03 
3.600000e+01 1.153696e+01  8.013745e+00  2.002000e+03 
7.200000e+01 1.153696e+01  8.711275e+00  2.002000e+03 
1.080000e+02 1.153696e+01  9.917906e+00  1.999250e+03 
1.440000e+02 1.153696e+01  1.054449e+01  2.000000e+03 
1.800000e+02 1.153696e+01  9.905563e+00  2.006000e+03 
2.160000e+02 1.153696e+01  9.179298e+00  2.004250e+03 
2.520000e+02 1.153696e+01  8.030253e+00  1.993750e+03 
2.880000e+02 1.153696e+01  6.879210e+00  1.994750e+03 
3.240000e+02 1.153696e+01  7.087189e+00  2.002000e+03 
0.000000e+00 0.000000e+00  7.984853e+00  2.002000e+03 
3.600000e+01 0.000000e+00  8.788970e+00  2.002000e+03 
7.200000e+01 0.000000e+00  9.584993e+00  2.002000e+03 
1.080000e+02 0.000000e+00  1.000877e+01  1.999250e+03 
1.440000e+02 0.000000e+00  9.755359e+00  1.998750e+03 
1.800000e+02 0.000000e+00  9.076175e+00  2.005750e+03 
2.160000e+02 0.000000e+00  8.804911e+00  2.000750e+03 
2.520000e+02 0.000000e+00  8.184309e+00  1.989250e+03 
2.880000e+02 0.000000e+00  7.363526e+00  1.994750e+03 
3.240000e+02 0.000000e+00  7.435414e+00  2.002000e+03 
0.000000e+00 -1.153696e+01  6.755563e+00  2.002000e+03 
3.600000e+01 -1.153696e+01  7.862024e+00  2.002000e+03 
7.200000e+01 -1.153696e+01  8.664411e+00  2.002000e+03 
1.080000e+02 -1.153696e+01  8.701465e+00  2.002000e+03 
1.440000e+02 -1.153696e+01  7.612081e+00  2.002000e+03 
1.800000e+02 -1.153696e+01  6.400668e+00  2.002000e+03 
2.160000e+02 -1.153696e+01  6.519498e+00  2.002000e+03 
2.520000e+02 -1.153696e+01  7.014822e+00  2.002000e+03 
2.880000e+02 -1.153696e+01  7.120063e+00  2.002000e+03 
3.240000e+02 -1.153696e+01  6.692637e+00  2.002000e+03 
0.000000e+00 -2.357818e+01  4.901999e+00  2.002000e+03 
3.600000e+01 -2.357818e+01  5.739784e+00  2.002000e+03 
7.200000e+01 -2.357818e+01  6.037547e+00  2.002000e+03 
1.080000e+02 -2.357818e+01  5.572714e+00  2.002000e+03 
1.440000e+02 -2.357818e+01  4.465249e+00  2.002000e+03 
1.800000e+02 -2.357818e+01  3.489674e+00  2.002000e+03 
2.160000e+02 -2.357818e+01  3.736856e+00  2.002000e+03 
2.520000e+02 -2.357818e+01  4.893588e+00  2.002000e+03 
2.880000e+02 -2.357818e+01  5.808646e+00  2.002000e+03 
3.240000e+02 -2.357818e+01  5.254537e+00  2.002000e+03 
0.000000e+00 -3.686990e+01  3.180195e+00  2.002000e+03 
3.600000e+01 -3.686990e+01  3.155767e+00  2.002000e+03 
7.200000e+01 -3.686990e+01  2.773867e+00  2.002000e+03 
1.080000e+02 -3.686990e+01  2.010094e+00  2.002000e+03 
1.440000e+02 -3.686990e+01  1.441272e+00  2.002000e+03 
1.800000e+02 -3.686990e+01  1.258370e+00  2.002000e+03 
2.160000e+02 -3.686990e+01  1.420014e+00  2.002000e+03 
2.520000e+02 -3.686990e+01  2.323547e+00  2.002000e+03 
2.880000e+02 -3.686990e+01  3.489072e+00  2.002000e+03 
3.240000e+02 -3.686990e+01  3.556641e+00  2.002000e+03 
0.000000e+00 -5.313010e+01  1.368364e+00  2.002000e+03 
3.600000e+01 -5.313010e+01  1.172624e+00  2.002000e+03 
7.200000e+01 -5.313010e+01  8.641098e-01  2.003750e+03 
1.080000e+02 -5.313010e+01  5.529743e-01  1.999500e+03 
1.440000e+02 -5.313010e+01  4.434999e-01  1.991250e+03 
1.800000e+02 -5.313010e+01  4.448483e-01  1.995500e+03 
2.160000e+02 -5.313010e+01  4.756839e-01  2.002000e+03 
2.520000e+02 -5.313010e+01  7.950761e-01  2.002000e+03 
2.880000e+02 -5.313010e+01  1.245768e+00  2.002000e+03 
3.240000e+02 -5.313010e+01  1.504379e+00  2.002000e+03 
0.000000e+00 -9.000000e+01  4.554450e-01  2.002000e+03 
3.600000e+01 -9.000000e+01  4.470631e-01  2.002000e+03 
7.200000e+01 -9.000000e+01  4.451890e-01  2.005500e+03 
1.080000e+02 -9.000000e+01  4.435613e-01  1.997000e+03 
1.440000e+02 -9.000000e+01  4.433597e-01  1.980500e+03 
1.800000e+02 -9.000000e+01  -1.000000e+00  1.989000e+03 
2.160000e+02 -9.000000e+01  -1.000000e+00  2.002000e+03 
2.520000e+02 -9.000000e+01  4.530396e-01  2.002000e+03 
2.880000e+02 -9.000000e+01  4.524468e-01  2.002000e+03 
3.240000e+02 -9.000000e+01  4.576165e-01  2.002000e+03 
