VARIABLES="Lon", "Lat", "Cutoff Rigidity", "Injected Particle Number"
ZONE I=10, J=11, DATAPACKING=POINT
0.000000e+00 9.000000e+01  4.607276e-01  1.998500e+03 
3.600000e+01 9.000000e+01  4.448647e-01  2.003000e+03 
7.200000e+01 9.000000e+01  4.445151e-01  2.005000e+03 
1.080000e+02 9.000000e+01  4.458753e-01  2.000500e+03 
1.440000e+02 9.000000e+01  4.482585e-01  2.000000e+03 
1.800000e+02 9.000000e+01  4.491614e-01  2.000000e+03 
2.160000e+02 9.000000e+01  8.097822e-01  2.000000e+03 
2.520000e+02 9.000000e+01  9.622138e-01  2.000500e+03 
2.880000e+02 9.000000e+01  6.343867e+00  2.000500e+03 
3.240000e+02 9.000000e+01  6.205035e+00  2.000000e+03 
0.000000e+00 5.313010e+01  6.701787e-01  1.999250e+03 
3.600000e+01 5.313010e+01  6.982235e-01  2.001500e+03 
7.200000e+01 5.313010e+01  6.667480e-01  2.004500e+03 
1.080000e+02 5.313010e+01  8.445352e-01  2.002250e+03 
1.440000e+02 5.313010e+01  1.346281e+00  2.000000e+03 
1.800000e+02 5.313010e+01  1.745212e+00  2.000000e+03 
2.160000e+02 5.313010e+01  1.820333e+00  2.000000e+03 
2.520000e+02 5.313010e+01  1.380274e+00  2.013000e+03 
2.880000e+02 5.313010e+01  3.635097e+00  2.013000e+03 
3.240000e+02 5.313010e+01  3.470393e+00  2.000000e+03 
0.000000e+00 3.686990e+01  2.460886e+00  2.000250e+03 
3.600000e+01 3.686990e+01  2.264864e+00  2.001500e+03 
7.200000e+01 3.686990e+01  2.230084e+00  2.004000e+03 
1.080000e+02 3.686990e+01  2.692814e+00  2.002750e+03 
1.440000e+02 3.686990e+01  3.902751e+00  2.000000e+03 
1.800000e+02 3.686990e+01  4.868476e+00  2.000000e+03 
2.160000e+02 3.686990e+01  4.671012e+00  2.000500e+03 
2.520000e+02 3.686990e+01  3.532988e+00  2.011750e+03 
2.880000e+02 3.686990e+01  2.335496e+00  2.012750e+03 
3.240000e+02 3.686990e+01  2.241087e+00  2.001500e+03 
0.000000e+00 2.357818e+01  5.980060e+00  1.988500e+03 
3.600000e+01 2.357818e+01  5.630660e+00  1.991500e+03 
7.200000e+01 2.357818e+01  5.490854e+00  2.010500e+03 
1.080000e+02 2.357818e+01  6.609079e+00  2.007500e+03 
1.440000e+02 2.357818e+01  7.794415e+00  1.997000e+03 
1.800000e+02 2.357818e+01  8.264518e+00  1.997000e+03 
2.160000e+02 2.357818e+01  7.890598e+00  1.998500e+03 
2.520000e+02 2.357818e+01  6.395803e+00  1.993250e+03 
2.880000e+02 2.357818e+01  4.919676e+00  1.996250e+03 
3.240000e+02 2.357818e+01  5.175542e+00  2.001500e+03 
0.000000e+00 1.153696e+01  8.075485e+00  1.988500e+03 
3.600000e+01 1.153696e+01  8.268848e+00  1.998000e+03 
7.200000e+01 1.153696e+01  8.422663e+00  2.031250e+03 
1.080000e+02 1.153696e+01  9.602981e+00  2.021750e+03 
1.440000e+02 1.153696e+01  1.011146e+01  2.005000e+03 
1.800000e+02 1.153696e+01  1.050165e+01  2.005000e+03 
2.160000e+02 1.153696e+01  1.106171e+01  2.013750e+03 
2.520000e+02 1.153696e+01  8.943213e+00  2.014500e+03 
2.880000e+02 1.153696e+01  6.854468e+00  2.009750e+03 
3.240000e+02 1.153696e+01  7.209091e+00  2.009000e+03 
0.000000e+00 0.000000e+00  7.941317e+00  2.000250e+03 
3.600000e+01 0.000000e+00  8.462288e+00  2.008000e+03 
7.200000e+01 0.000000e+00  9.185947e+00  2.035500e+03 
1.080000e+02 0.000000e+00  9.796742e+00  2.027750e+03 
1.440000e+02 0.000000e+00  9.652091e+00  2.008000e+03 
1.800000e+02 0.000000e+00  9.766081e+00  2.008000e+03 
2.160000e+02 0.000000e+00  1.077499e+01  2.015750e+03 
2.520000e+02 0.000000e+00  9.597343e+00  2.026000e+03 
2.880000e+02 0.000000e+00  7.814298e+00  2.019250e+03 
3.240000e+02 0.000000e+00  7.746188e+00  2.009000e+03 
0.000000e+00 -1.153696e+01  6.984275e+00  2.000000e+03 
3.600000e+01 -1.153696e+01  7.562794e+00  2.000000e+03 
7.200000e+01 -1.153696e+01  8.254680e+00  2.005750e+03 
1.080000e+02 -1.153696e+01  8.312436e+00  2.005750e+03 
1.440000e+02 -1.153696e+01  7.585722e+00  2.000000e+03 
1.800000e+02 -1.153696e+01  6.685176e+00  2.000000e+03 
2.160000e+02 -1.153696e+01  7.571111e+00  2.000000e+03 
2.520000e+02 -1.153696e+01  8.161668e+00  2.001000e+03 
2.880000e+02 -1.153696e+01  7.230244e+00  2.001000e+03 
3.240000e+02 -1.153696e+01  6.903958e+00  2.000000e+03 
0.000000e+00 -2.357818e+01  5.112292e+00  1.996500e+03 
3.600000e+01 -2.357818e+01  5.518932e+00  1.993750e+03 
7.200000e+01 -2.357818e+01  6.038347e+00  1.991250e+03 
1.080000e+02 -2.357818e+01  5.477901e+00  1.994000e+03 
1.440000e+02 -2.357818e+01  4.340164e+00  2.000000e+03 
1.800000e+02 -2.357818e+01  3.537818e+00  2.000000e+03 
2.160000e+02 -2.357818e+01  4.472850e+00  2.000000e+03 
2.520000e+02 -2.357818e+01  5.669150e+00  1.984500e+03 
2.880000e+02 -2.357818e+01  5.772692e+00  1.984500e+03 
3.240000e+02 -2.357818e+01  5.532545e+00  2.000000e+03 
0.000000e+00 -3.686990e+01  3.054372e+00  1.997250e+03 
3.600000e+01 -3.686990e+01  2.984431e+00  1.996750e+03 
7.200000e+01 -3.686990e+01  3.017357e+00  2.006500e+03 
1.080000e+02 -3.686990e+01  2.281240e+00  2.007000e+03 
1.440000e+02 -3.686990e+01  1.531715e+00  2.000000e+03 
1.800000e+02 -3.686990e+01  1.255883e+00  2.000000e+03 
2.160000e+02 -3.686990e+01  1.483646e+00  2.000000e+03 
2.520000e+02 -3.686990e+01  2.350744e+00  1.999000e+03 
2.880000e+02 -3.686990e+01  3.480338e+00  1.999000e+03 
3.240000e+02 -3.686990e+01  3.695130e+00  2.000000e+03 
0.000000e+00 -5.313010e+01  1.333728e+00  2.001000e+03 
3.600000e+01 -5.313010e+01  1.216256e+00  2.003000e+03 
7.200000e+01 -5.313010e+01  9.888986e-01  2.010000e+03 
1.080000e+02 -5.313010e+01  6.082873e-01  2.009250e+03 
1.440000e+02 -5.313010e+01  4.457275e-01  2.006000e+03 
1.800000e+02 -5.313010e+01  4.442724e-01  2.004750e+03 
2.160000e+02 -5.313010e+01  4.672034e-01  2.000000e+03 
2.520000e+02 -5.313010e+01  7.175509e-01  1.989750e+03 
2.880000e+02 -5.313010e+01  1.152715e+00  1.993500e+03 
3.240000e+02 -5.313010e+01  1.458396e+00  2.003750e+03 
0.000000e+00 -9.000000e+01  4.643887e-01  2.000500e+03 
3.600000e+01 -9.000000e+01  4.459809e-01  2.000000e+03 
7.200000e+01 -9.000000e+01  4.475040e-01  2.003500e+03 
1.080000e+02 -9.000000e+01  4.482698e-01  2.006500e+03 
1.440000e+02 -9.000000e+01  4.458939e-01  2.012000e+03 
1.800000e+02 -9.000000e+01  -1.000000e+00  2.009500e+03 
2.160000e+02 -9.000000e+01  -1.000000e+00  2.000000e+03 
2.520000e+02 -9.000000e+01  4.440470e-01  1.960000e+03 
2.880000e+02 -9.000000e+01  4.439958e-01  1.967500e+03 
3.240000e+02 -9.000000e+01  4.625613e-01  2.007500e+03 
