VARIABLES="Lon", "Lat",  "Total Flux [1/(s*m^2)] (s=0)",  "Total Flux [1/(s*m^2)] (s=1)"
ZONE I=6, J=6, DATAPACKING=POINT
-2.160000e+02 9.000000e+01   0.000000e+00  0.000000e+00
-1.440000e+02 9.000000e+01   0.000000e+00  0.000000e+00
-7.200000e+01 9.000000e+01   0.000000e+00  0.000000e+00
0.000000e+00 9.000000e+01   0.000000e+00  0.000000e+00
7.200000e+01 9.000000e+01   0.000000e+00  0.000000e+00
1.440000e+02 9.000000e+01   0.000000e+00  0.000000e+00
-2.160000e+02 5.400000e+01   0.000000e+00  0.000000e+00
-1.440000e+02 5.400000e+01   0.000000e+00  0.000000e+00
-7.200000e+01 5.400000e+01   0.000000e+00  0.000000e+00
0.000000e+00 5.400000e+01   0.000000e+00  0.000000e+00
7.200000e+01 5.400000e+01   0.000000e+00  0.000000e+00
1.440000e+02 5.400000e+01   0.000000e+00  0.000000e+00
-2.160000e+02 1.800000e+01   0.000000e+00  0.000000e+00
-1.440000e+02 1.800000e+01   0.000000e+00  0.000000e+00
-7.200000e+01 1.800000e+01   0.000000e+00  0.000000e+00
0.000000e+00 1.800000e+01   0.000000e+00  0.000000e+00
7.200000e+01 1.800000e+01   0.000000e+00  0.000000e+00
1.440000e+02 1.800000e+01   0.000000e+00  0.000000e+00
-2.160000e+02 -1.800000e+01   0.000000e+00  0.000000e+00
-1.440000e+02 -1.800000e+01   0.000000e+00  0.000000e+00
-7.200000e+01 -1.800000e+01   0.000000e+00  0.000000e+00
0.000000e+00 -1.800000e+01   0.000000e+00  0.000000e+00
7.200000e+01 -1.800000e+01   0.000000e+00  0.000000e+00
1.440000e+02 -1.800000e+01   0.000000e+00  0.000000e+00
-2.160000e+02 -5.400000e+01   0.000000e+00  0.000000e+00
-1.440000e+02 -5.400000e+01   0.000000e+00  0.000000e+00
-7.200000e+01 -5.400000e+01   0.000000e+00  0.000000e+00
0.000000e+00 -5.400000e+01   0.000000e+00  0.000000e+00
7.200000e+01 -5.400000e+01   0.000000e+00  0.000000e+00
1.440000e+02 -5.400000e+01   0.000000e+00  0.000000e+00
-2.160000e+02 -9.000000e+01   0.000000e+00  0.000000e+00
-1.440000e+02 -9.000000e+01   0.000000e+00  0.000000e+00
-7.200000e+01 -9.000000e+01   0.000000e+00  0.000000e+00
0.000000e+00 -9.000000e+01   0.000000e+00  0.000000e+00
7.200000e+01 -9.000000e+01   0.000000e+00  0.000000e+00
1.440000e+02 -9.000000e+01   0.000000e+00  0.000000e+00
