VARIABLES="X","Y","Z","faceat","Mesh File ID", "EnergyTransferRate[s=0]", "absMomentumTransferRate[s=0]", "MomentumTransferRateX[s=0]", "MomentumTransferRateY[s=0]", "MomentumTransferRateZ[s=0]", "Surface Aboundance [m^-2][s=0]" , "SourceRate [m^-2 s^-1][s=0]" 
ZONE N=4377, E=8748, DATAPACKING=POINT, ZONETYPE=FETRIANGLE
0.000000e+00 0.000000e+00 0.000000e+00 -1 -1  0.000000e+00 0.000000e+00 0.000000e+00 0.000000e+00 0.000000e+00 0.000000e+00  0.000000e+00 
-8.685000e-01 0.000000e+00 0.000000e+00 60 1  0.000000e+00 0.000000e+00 0.000000e+00 0.000000e+00 0.000000e+00 0.000000e+00  0.000000e+00 
0.000000e+00 8.685000e-01 0.000000e+00 60 1  6.984579e-10 3.133482e+01 -8.144531e-01 -3.132053e+01 -4.815910e-01 0.000000e+00  0.000000e+00 
0.000000e+00 0.000000e+00 8.685000e-01 60 1  5.470800e-11 1.439060e+01 -4.185361e-01 -1.022547e-01 -1.438415e+01 0.000000e+00  0.000000e+00 
-5.318029e-17 -8.685000e-01 0.000000e+00 61 1  -6.072721e-11 1.897896e+01 -4.365498e-01 1.897272e+01 2.149533e-01 0.000000e+00  0.000000e+00 
8.685000e-01 -1.063606e-16 0.000000e+00 65 1  7.280778e-06 7.649604e+04 -7.649361e+04 3.933493e+02 -4.654117e+02 0.000000e+00  0.000000e+00 
-5.318029e-17 0.000000e+00 -8.685000e-01 71 1  -1.599555e-10 2.813310e+01 -6.357418e-01 4.709064e-01 2.812197e+01 0.000000e+00  0.000000e+00 
-8.670306e-01 5.049878e-02 0.000000e+00 60 1  0.000000e+00 0.000000e+00 0.000000e+00 0.000000e+00 0.000000e+00 0.000000e+00  0.000000e+00 
-8.626275e-01 1.008267e-01 0.000000e+00 60 1  0.000000e+00 0.000000e+00 0.000000e+00 0.000000e+00 0.000000e+00 0.000000e+00  0.000000e+00 
-8.553055e-01 1.508134e-01 0.000000e+00 60 1  0.000000e+00 0.000000e+00 0.000000e+00 0.000000e+00 0.000000e+00 0.000000e+00  0.000000e+00 
-8.450895e-01 2.002899e-01 0.000000e+00 60 1  0.000000e+00 0.000000e+00 0.000000e+00 0.000000e+00 0.000000e+00 0.000000e+00  0.000000e+00 
-8.320139e-01 2.490886e-01 0.000000e+00 60 1  0.000000e+00 0.000000e+00 0.000000e+00 0.000000e+00 0.000000e+00 0.000000e+00  0.000000e+00 
-8.161230e-01 2.970445e-01 0.000000e+00 60 1  0.000000e+00 0.000000e+00 0.000000e+00 0.000000e+00 0.000000e+00 0.000000e+00  0.000000e+00 
-7.974707e-01 3.439953e-01 0.000000e+00 60 1  0.000000e+00 0.000000e+00 0.000000e+00 0.000000e+00 0.000000e+00 0.000000e+00  0.000000e+00 
-7.761199e-01 3.897821e-01 0.000000e+00 60 1  0.000000e+00 0.000000e+00 0.000000e+00 0.000000e+00 0.000000e+00 0.000000e+00  0.000000e+00 
-7.521431e-01 4.342500e-01 0.000000e+00 60 1  0.000000e+00 0.000000e+00 0.000000e+00 0.000000e+00 0.000000e+00 0.000000e+00  0.000000e+00 
-7.256212e-01 4.772485e-01 0.000000e+00 60 1  0.000000e+00 0.000000e+00 0.000000e+00 0.000000e+00 0.000000e+00 0.000000e+00  0.000000e+00 
-6.966440e-01 5.186322e-01 0.000000e+00 60 1  0.000000e+00 0.000000e+00 0.000000e+00 0.000000e+00 0.000000e+00 0.000000e+00  0.000000e+00 
-6.653096e-01 5.582610e-01 0.000000e+00 60 1  0.000000e+00 0.000000e+00 0.000000e+00 0.000000e+00 0.000000e+00 0.000000e+00  0.000000e+00 
-6.317240e-01 5.960009e-01 0.000000e+00 60 1  0.000000e+00 0.000000e+00 0.000000e+00 0.000000e+00 0.000000e+00 0.000000e+00  0.000000e+00 
-5.960009e-01 6.317240e-01 0.000000e+00 60 1  0.000000e+00 0.000000e+00 0.000000e+00 0.000000e+00 0.000000e+00 0.000000e+00  0.000000e+00 
-5.582610e-01 6.653096e-01 0.000000e+00 60 1  0.000000e+00 0.000000e+00 0.000000e+00 0.000000e+00 0.000000e+00 0.000000e+00  0.000000e+00 
-5.186322e-01 6.966440e-01 0.000000e+00 60 1  0.000000e+00 0.000000e+00 0.000000e+00 0.000000e+00 0.000000e+00 0.000000e+00  0.000000e+00 
-4.772485e-01 7.256212e-01 0.000000e+00 60 1  0.000000e+00 0.000000e+00 0.000000e+00 0.000000e+00 0.000000e+00 0.000000e+00  0.000000e+00 
-4.342500e-01 7.521431e-01 0.000000e+00 60 1  0.000000e+00 0.000000e+00 0.000000e+00 0.000000e+00 0.000000e+00 0.000000e+00  0.000000e+00 
-3.897821e-01 7.761199e-01 0.000000e+00 60 1  0.000000e+00 0.000000e+00 0.000000e+00 0.000000e+00 0.000000e+00 0.000000e+00  0.000000e+00 
-3.439953e-01 7.974707e-01 0.000000e+00 60 1  0.000000e+00 0.000000e+00 0.000000e+00 0.000000e+00 0.000000e+00 0.000000e+00  0.000000e+00 
-2.970445e-01 8.161230e-01 0.000000e+00 60 1  0.000000e+00 0.000000e+00 0.000000e+00 0.000000e+00 0.000000e+00 0.000000e+00  0.000000e+00 
-2.490886e-01 8.320139e-01 0.000000e+00 60 1  0.000000e+00 0.000000e+00 0.000000e+00 0.000000e+00 0.000000e+00 0.000000e+00  0.000000e+00 
-2.002899e-01 8.450895e-01 0.000000e+00 60 1  0.000000e+00 0.000000e+00 0.000000e+00 0.000000e+00 0.000000e+00 0.000000e+00  0.000000e+00 
-1.508134e-01 8.553055e-01 0.000000e+00 60 1  0.000000e+00 0.000000e+00 0.000000e+00 0.000000e+00 0.000000e+00 0.000000e+00  0.000000e+00 
-1.008267e-01 8.626275e-01 0.000000e+00 60 1  0.000000e+00 0.000000e+00 0.000000e+00 0.000000e+00 0.000000e+00 0.000000e+00  0.000000e+00 
-5.049878e-02 8.670306e-01 0.000000e+00 60 1  0.000000e+00 0.000000e+00 0.000000e+00 0.000000e+00 0.000000e+00 0.000000e+00  0.000000e+00 
-5.049878e-02 0.000000e+00 8.670306e-01 60 1  0.000000e+00 0.000000e+00 0.000000e+00 0.000000e+00 0.000000e+00 0.000000e+00  0.000000e+00 
-1.008267e-01 0.000000e+00 8.626275e-01 60 1  0.000000e+00 0.000000e+00 0.000000e+00 0.000000e+00 0.000000e+00 0.000000e+00  0.000000e+00 
-1.508134e-01 0.000000e+00 8.553055e-01 60 1  0.000000e+00 0.000000e+00 0.000000e+00 0.000000e+00 0.000000e+00 0.000000e+00  0.000000e+00 
-2.002899e-01 0.000000e+00 8.450895e-01 60 1  0.000000e+00 0.000000e+00 0.000000e+00 0.000000e+00 0.000000e+00 0.000000e+00  0.000000e+00 
-2.490886e-01 0.000000e+00 8.320139e-01 60 1  0.000000e+00 0.000000e+00 0.000000e+00 0.000000e+00 0.000000e+00 0.000000e+00  0.000000e+00 
-2.970445e-01 0.000000e+00 8.161230e-01 60 1  0.000000e+00 0.000000e+00 0.000000e+00 0.000000e+00 0.000000e+00 0.000000e+00  0.000000e+00 
-3.439953e-01 0.000000e+00 7.974707e-01 60 1  0.000000e+00 0.000000e+00 0.000000e+00 0.000000e+00 0.000000e+00 0.000000e+00  0.000000e+00 
-3.897821e-01 0.000000e+00 7.761199e-01 60 1  0.000000e+00 0.000000e+00 0.000000e+00 0.000000e+00 0.000000e+00 0.000000e+00  0.000000e+00 
-4.342500e-01 0.000000e+00 7.521431e-01 60 1  0.000000e+00 0.000000e+00 0.000000e+00 0.000000e+00 0.000000e+00 0.000000e+00  0.000000e+00 
-4.772485e-01 0.000000e+00 7.256212e-01 60 1  0.000000e+00 0.000000e+00 0.000000e+00 0.000000e+00 0.000000e+00 0.000000e+00  0.000000e+00 
-5.186322e-01 0.000000e+00 6.966440e-01 60 1  0.000000e+00 0.000000e+00 0.000000e+00 0.000000e+00 0.000000e+00 0.000000e+00  0.000000e+00 
-5.582610e-01 0.000000e+00 6.653096e-01 60 1  0.000000e+00 0.000000e+00 0.000000e+00 0.000000e+00 0.000000e+00 0.000000e+00  0.000000e+00 
-5.960009e-01 0.000000e+00 6.317240e-01 60 1  0.000000e+00 0.000000e+00 0.000000e+00 0.000000e+00 0.000000e+00 0.000000e+00  0.000000e+00 
-6.317240e-01 0.000000e+00 5.960009e-01 60 1  0.000000e+00 0.000000e+00 0.000000e+00 0.000000e+00 0.000000e+00 0.000000e+00  0.000000e+00 
-6.653096e-01 0.000000e+00 5.582610e-01 60 1  0.000000e+00 0.000000e+00 0.000000e+00 0.000000e+00 0.000000e+00 0.000000e+00  0.000000e+00 
-6.966440e-01 0.000000e+00 5.186322e-01 60 1  0.000000e+00 0.000000e+00 0.000000e+00 0.000000e+00 0.000000e+00 0.000000e+00  0.000000e+00 
-7.256212e-01 0.000000e+00 4.772485e-01 60 1  0.000000e+00 0.000000e+00 0.000000e+00 0.000000e+00 0.000000e+00 0.000000e+00  0.000000e+00 
-7.521431e-01 0.000000e+00 4.342500e-01 60 1  0.000000e+00 0.000000e+00 0.000000e+00 0.000000e+00 0.000000e+00 0.000000e+00  0.000000e+00 
-7.761199e-01 0.000000e+00 3.897821e-01 60 1  0.000000e+00 0.000000e+00 0.000000e+00 0.000000e+00 0.000000e+00 0.000000e+00  0.000000e+00 
-7.974707e-01 0.000000e+00 3.439953e-01 60 1  0.000000e+00 0.000000e+00 0.000000e+00 0.000000e+00 0.000000e+00 0.000000e+00  0.000000e+00 
-8.161230e-01 0.000000e+00 2.970445e-01 60 1  0.000000e+00 0.000000e+00 0.000000e+00 0.000000e+00 0.000000e+00 0.000000e+00  0.000000e+00 
-8.320139e-01 0.000000e+00 2.490886e-01 60 1  0.000000e+00 0.000000e+00 0.000000e+00 0.000000e+00 0.000000e+00 0.000000e+00  0.000000e+00 
-8.450895e-01 0.000000e+00 2.002899e-01 60 1  0.000000e+00 0.000000e+00 0.000000e+00 0.000000e+00 0.000000e+00 0.000000e+00  0.000000e+00 
-8.553055e-01 0.000000e+00 1.508134e-01 60 1  0.000000e+00 0.000000e+00 0.000000e+00 0.000000e+00 0.000000e+00 0.000000e+00  0.000000e+00 
-8.626275e-01 0.000000e+00 1.008267e-01 60 1  0.000000e+00 0.000000e+00 0.000000e+00 0.000000e+00 0.000000e+00 0.000000e+00  0.000000e+00 
-8.670306e-01 0.000000e+00 5.049878e-02 60 1  0.000000e+00 0.000000e+00 0.000000e+00 0.000000e+00 0.000000e+00 0.000000e+00  0.000000e+00 
0.000000e+00 5.049878e-02 8.670306e-01 60 1  -1.654836e-10 1.090068e+01 -2.329041e-01 -7.479902e-01 -1.087250e+01 0.000000e+00  0.000000e+00 
0.000000e+00 1.008267e-01 8.626275e-01 60 1  -9.334217e-11 1.294238e+01 -2.857574e-01 -1.562423e+00 -1.284454e+01 0.000000e+00  0.000000e+00 
0.000000e+00 1.508134e-01 8.553055e-01 60 1  -1.403088e-10 2.954348e+01 -9.887593e-01 -4.972481e+00 -2.910522e+01 0.000000e+00  0.000000e+00 
0.000000e+00 2.002899e-01 8.450895e-01 60 1  -3.809525e-10 1.224846e+01 -2.939863e-01 -3.002228e+00 -1.187118e+01 0.000000e+00  0.000000e+00 
0.000000e+00 2.490886e-01 8.320139e-01 60 1  1.652626e-10 2.203507e+01 -5.860314e-01 -6.376031e+00 -2.108428e+01 0.000000e+00  0.000000e+00 
0.000000e+00 2.970445e-01 8.161230e-01 60 1  6.503910e-10 3.928503e+01 -1.235881e+00 -1.410425e+01 -3.664500e+01 0.000000e+00  0.000000e+00 
0.000000e+00 3.439953e-01 7.974707e-01 60 1  3.381437e-10 4.400974e+01 -1.386559e+00 -1.676810e+01 -4.066651e+01 0.000000e+00  0.000000e+00 
0.000000e+00 3.897821e-01 7.761199e-01 60 1  -3.441989e-10 1.328374e+01 -3.293983e-01 -5.946835e+00 -1.187369e+01 0.000000e+00  0.000000e+00 
0.000000e+00 4.342500e-01 7.521431e-01 60 1  1.473380e-10 5.999562e+01 -1.915947e+00 -3.105287e+01 -5.129837e+01 0.000000e+00  0.000000e+00 
0.000000e+00 4.772485e-01 7.256212e-01 60 1  3.508300e-10 4.415625e+01 -1.237799e+00 -2.317189e+01 -3.756735e+01 0.000000e+00  0.000000e+00 
0.000000e+00 5.186322e-01 6.966440e-01 60 1  -4.530176e-10 6.401417e+01 -2.527413e+00 -3.762820e+01 -5.172567e+01 0.000000e+00  0.000000e+00 
0.000000e+00 5.582610e-01 6.653096e-01 60 1  -9.269352e-11 3.210105e+01 -1.091173e+00 -2.062890e+01 -2.457103e+01 0.000000e+00  0.000000e+00 
0.000000e+00 5.960009e-01 6.317240e-01 60 1  6.150249e-11 2.333505e+01 -7.434018e-01 -1.588357e+01 -1.707876e+01 0.000000e+00  0.000000e+00 
0.000000e+00 6.317240e-01 5.960009e-01 60 1  -1.356167e-10 2.216682e+01 -6.306606e-01 -1.634937e+01 -1.495555e+01 0.000000e+00  0.000000e+00 
0.000000e+00 6.653096e-01 5.582610e-01 60 1  -2.054033e-10 4.862809e+01 -1.249325e+00 -3.745619e+01 -3.098651e+01 0.000000e+00  0.000000e+00 
0.000000e+00 6.966440e-01 5.186322e-01 60 1  -7.750386e-11 2.164382e+01 -4.349584e-01 -1.736988e+01 -1.290554e+01 0.000000e+00  0.000000e+00 
0.000000e+00 7.256212e-01 4.772485e-01 60 1  1.779211e-10 2.724768e+01 -7.474757e-01 -2.277673e+01 -1.493645e+01 0.000000e+00  0.000000e+00 
0.000000e+00 7.521431e-01 4.342500e-01 60 1  2.269835e-10 5.160022e+00 -1.291188e-01 -4.540437e+00 -2.448182e+00 0.000000e+00  0.000000e+00 
0.000000e+00 7.761199e-01 3.897821e-01 60 1  4.352437e-10 3.708219e+01 -1.158948e+00 -3.307997e+01 -1.671711e+01 0.000000e+00  0.000000e+00 
0.000000e+00 7.974707e-01 3.439953e-01 60 1  2.199217e-10 5.955735e+01 -1.870201e+00 -5.455159e+01 -2.382655e+01 0.000000e+00  0.000000e+00 
0.000000e+00 8.161230e-01 2.970445e-01 60 1  4.095183e-10 4.543757e+01 -1.053477e+00 -4.265386e+01 -1.562407e+01 0.000000e+00  0.000000e+00 
0.000000e+00 8.320139e-01 2.490886e-01 60 1  1.942621e-10 1.605415e+01 -4.031681e-01 -1.527978e+01 -4.909327e+00 0.000000e+00  0.000000e+00 
0.000000e+00 8.450895e-01 2.002899e-01 60 1  0.000000e+00 0.000000e+00 0.000000e+00 0.000000e+00 0.000000e+00 0.000000e+00  0.000000e+00 
0.000000e+00 8.553055e-01 1.508134e-01 60 1  3.032804e-11 5.098356e+00 -1.310130e-01 -5.010452e+00 -9.335108e-01 0.000000e+00  0.000000e+00 
0.000000e+00 8.626275e-01 1.008267e-01 60 1  -5.898733e-10 4.064863e+01 -1.271591e+00 -4.038591e+01 -4.435345e+00 0.000000e+00  0.000000e+00 
0.000000e+00 8.670306e-01 5.049878e-02 60 1  -7.109607e-10 2.072463e+01 -4.724029e-01 -2.064040e+01 -1.805801e+00 0.000000e+00  0.000000e+00 
-5.049878e-02 -8.670306e-01 0.000000e+00 61 1  0.000000e+00 0.000000e+00 0.000000e+00 0.000000e+00 0.000000e+00 0.000000e+00  0.000000e+00 
-1.008267e-01 -8.626275e-01 0.000000e+00 61 1  0.000000e+00 0.000000e+00 0.000000e+00 0.000000e+00 0.000000e+00 0.000000e+00  0.000000e+00 
-1.508134e-01 -8.553055e-01 0.000000e+00 61 1  0.000000e+00 0.000000e+00 0.000000e+00 0.000000e+00 0.000000e+00 0.000000e+00  0.000000e+00 
-2.002899e-01 -8.450895e-01 0.000000e+00 61 1  0.000000e+00 0.000000e+00 0.000000e+00 0.000000e+00 0.000000e+00 0.000000e+00  0.000000e+00 
-2.490886e-01 -8.320139e-01 0.000000e+00 61 1  0.000000e+00 0.000000e+00 0.000000e+00 0.000000e+00 0.000000e+00 0.000000e+00  0.000000e+00 
-2.970445e-01 -8.161230e-01 0.000000e+00 61 1  0.000000e+00 0.000000e+00 0.000000e+00 0.000000e+00 0.000000e+00 0.000000e+00  0.000000e+00 
-3.439953e-01 -7.974707e-01 0.000000e+00 61 1  0.000000e+00 0.000000e+00 0.000000e+00 0.000000e+00 0.000000e+00 0.000000e+00  0.000000e+00 
-3.897821e-01 -7.761199e-01 0.000000e+00 61 1  0.000000e+00 0.000000e+00 0.000000e+00 0.000000e+00 0.000000e+00 0.000000e+00  0.000000e+00 
-4.342500e-01 -7.521431e-01 0.000000e+00 61 1  0.000000e+00 0.000000e+00 0.000000e+00 0.000000e+00 0.000000e+00 0.000000e+00  0.000000e+00 
-4.772485e-01 -7.256212e-01 0.000000e+00 61 1  0.000000e+00 0.000000e+00 0.000000e+00 0.000000e+00 0.000000e+00 0.000000e+00  0.000000e+00 
-5.186322e-01 -6.966440e-01 0.000000e+00 61 1  0.000000e+00 0.000000e+00 0.000000e+00 0.000000e+00 0.000000e+00 0.000000e+00  0.000000e+00 
-5.582610e-01 -6.653096e-01 0.000000e+00 61 1  0.000000e+00 0.000000e+00 0.000000e+00 0.000000e+00 0.000000e+00 0.000000e+00  0.000000e+00 
-5.960009e-01 -6.317240e-01 0.000000e+00 61 1  0.000000e+00 0.000000e+00 0.000000e+00 0.000000e+00 0.000000e+00 0.000000e+00  0.000000e+00 
-6.317240e-01 -5.960009e-01 0.000000e+00 61 1  0.000000e+00 0.000000e+00 0.000000e+00 0.000000e+00 0.000000e+00 0.000000e+00  0.000000e+00 
-6.653096e-01 -5.582610e-01 0.000000e+00 61 1  0.000000e+00 0.000000e+00 0.000000e+00 0.000000e+00 0.000000e+00 0.000000e+00  0.000000e+00 
-6.966440e-01 -5.186322e-01 0.000000e+00 61 1  0.000000e+00 0.000000e+00 0.000000e+00 0.000000e+00 0.000000e+00 0.000000e+00  0.000000e+00 
-7.256212e-01 -4.772485e-01 0.000000e+00 61 1  0.000000e+00 0.000000e+00 0.000000e+00 0.000000e+00 0.000000e+00 0.000000e+00  0.000000e+00 
-7.521431e-01 -4.342500e-01 0.000000e+00 61 1  0.000000e+00 0.000000e+00 0.000000e+00 0.000000e+00 0.000000e+00 0.000000e+00  0.000000e+00 
-7.761199e-01 -3.897821e-01 0.000000e+00 61 1  0.000000e+00 0.000000e+00 0.000000e+00 0.000000e+00 0.000000e+00 0.000000e+00  0.000000e+00 
-7.974707e-01 -3.439953e-01 0.000000e+00 61 1  0.000000e+00 0.000000e+00 0.000000e+00 0.000000e+00 0.000000e+00 0.000000e+00  0.000000e+00 
-8.161230e-01 -2.970445e-01 0.000000e+00 61 1  0.000000e+00 0.000000e+00 0.000000e+00 0.000000e+00 0.000000e+00 0.000000e+00  0.000000e+00 
-8.320139e-01 -2.490886e-01 0.000000e+00 61 1  0.000000e+00 0.000000e+00 0.000000e+00 0.000000e+00 0.000000e+00 0.000000e+00  0.000000e+00 
-8.450895e-01 -2.002899e-01 0.000000e+00 61 1  0.000000e+00 0.000000e+00 0.000000e+00 0.000000e+00 0.000000e+00 0.000000e+00  0.000000e+00 
-8.553055e-01 -1.508134e-01 0.000000e+00 61 1  0.000000e+00 0.000000e+00 0.000000e+00 0.000000e+00 0.000000e+00 0.000000e+00  0.000000e+00 
-8.626275e-01 -1.008267e-01 0.000000e+00 61 1  0.000000e+00 0.000000e+00 0.000000e+00 0.000000e+00 0.000000e+00 0.000000e+00  0.000000e+00 
-8.670306e-01 -5.049878e-02 0.000000e+00 61 1  0.000000e+00 0.000000e+00 0.000000e+00 0.000000e+00 0.000000e+00 0.000000e+00  0.000000e+00 
-3.092159e-18 -5.049878e-02 8.670306e-01 61 1  7.427563e-10 2.060085e+01 -3.435801e-01 1.550299e+00 -2.053956e+01 0.000000e+00  0.000000e+00 
-6.173854e-18 -1.008267e-01 8.626275e-01 61 1  3.496021e-10 1.353576e+01 -2.094362e-01 1.312273e+00 -1.347037e+01 0.000000e+00  0.000000e+00 
-9.234660e-18 -1.508134e-01 8.553055e-01 61 1  -1.177580e-10 1.390608e+01 -4.285047e-01 2.304197e+00 -1.370716e+01 0.000000e+00  0.000000e+00 
-1.226422e-17 -2.002899e-01 8.450895e-01 61 1  -6.081859e-11 1.971109e+01 -6.537735e-01 4.440217e+00 -1.919333e+01 0.000000e+00  0.000000e+00 
-1.525228e-17 -2.490886e-01 8.320139e-01 61 1  -1.669814e-10 7.705119e+00 -1.077844e-01 2.181461e+00 -7.389078e+00 0.000000e+00  0.000000e+00 
-1.818873e-17 -2.970445e-01 8.161230e-01 61 1  -2.293829e-10 4.113262e+01 -1.107078e+00 1.493378e+01 -3.830991e+01 0.000000e+00  0.000000e+00 
-2.106364e-17 -3.439953e-01 7.974707e-01 61 1  -2.688161e-10 4.438937e+01 -1.275694e+00 1.680387e+01 -4.106603e+01 0.000000e+00  0.000000e+00 
-2.386727e-17 -3.897821e-01 7.761199e-01 61 1  7.581165e-11 1.592966e+01 -3.640242e-01 7.250252e+00 -1.417940e+01 0.000000e+00  0.000000e+00 
-2.659014e-17 -4.342500e-01 7.521431e-01 61 1  -1.718166e-10 1.364874e+01 -2.803631e-01 6.942016e+00 -1.174810e+01 0.000000e+00  0.000000e+00 
-2.922305e-17 -4.772485e-01 7.256212e-01 61 1  -3.474638e-10 4.466754e+01 -1.399432e+00 2.451235e+01 -3.731454e+01 0.000000e+00  0.000000e+00 
-3.175707e-17 -5.186322e-01 6.966440e-01 61 1  -6.990286e-10 6.724019e+01 -2.170823e+00 4.080376e+01 -5.340023e+01 0.000000e+00  0.000000e+00 
-3.418363e-17 -5.582610e-01 6.653096e-01 61 1  -5.998698e-10 2.794992e+01 -8.053222e-01 1.732834e+01 -2.191525e+01 0.000000e+00  0.000000e+00 
-3.649453e-17 -5.960009e-01 6.317240e-01 61 1  -9.385687e-11 3.194370e+01 -1.032246e+00 2.203843e+01 -2.310069e+01 0.000000e+00  0.000000e+00 
-3.868194e-17 -6.317240e-01 5.960009e-01 61 1  2.962502e-10 2.183448e+01 -6.406362e-01 1.577861e+01 -1.507879e+01 0.000000e+00  0.000000e+00 
-4.073846e-17 -6.653096e-01 5.582610e-01 61 1  0.000000e+00 0.000000e+00 0.000000e+00 0.000000e+00 0.000000e+00 0.000000e+00  0.000000e+00 
-4.265714e-17 -6.966440e-01 5.186322e-01 61 1  -5.794971e-11 1.060851e+01 -3.210678e-01 8.535764e+00 -6.291111e+00 0.000000e+00  0.000000e+00 
-4.443148e-17 -7.256212e-01 4.772485e-01 61 1  -3.060843e-10 8.226182e+00 -4.850839e-02 7.001319e+00 -4.318478e+00 0.000000e+00  0.000000e+00 
-4.605548e-17 -7.521431e-01 4.342500e-01 61 1  -1.248979e-10 3.534486e+01 -9.404364e-01 3.063307e+01 -1.760652e+01 0.000000e+00  0.000000e+00 
-4.752364e-17 -7.761199e-01 3.897821e-01 61 1  -4.973520e-11 1.933901e+01 -6.121757e-01 1.715818e+01 -8.900527e+00 0.000000e+00  0.000000e+00 
-4.883100e-17 -7.974707e-01 3.439953e-01 61 1  -3.161325e-11 2.265365e+01 -6.610208e-01 2.085716e+01 -8.816434e+00 0.000000e+00  0.000000e+00 
-4.997312e-17 -8.161230e-01 2.970445e-01 61 1  -9.191988e-11 2.807048e+01 -8.525777e-01 2.645673e+01 -9.341640e+00 0.000000e+00  0.000000e+00 
-5.094616e-17 -8.320139e-01 2.490886e-01 61 1  -1.454793e-10 7.966046e+01 -2.690520e+00 7.637564e+01 -2.247913e+01 0.000000e+00  0.000000e+00 
-5.174681e-17 -8.450895e-01 2.002899e-01 61 1  -8.293935e-11 2.875276e+01 -6.539885e-01 2.791374e+01 -6.864131e+00 0.000000e+00  0.000000e+00 
-5.237236e-17 -8.553055e-01 1.508134e-01 61 1  6.317002e-11 9.263940e+00 -2.156692e-01 9.070094e+00 -1.872824e+00 0.000000e+00  0.000000e+00 
-5.282070e-17 -8.626275e-01 1.008267e-01 61 1  0.000000e+00 0.000000e+00 0.000000e+00 0.000000e+00 0.000000e+00 0.000000e+00  0.000000e+00 
-5.309031e-17 -8.670306e-01 5.049878e-02 61 1  0.000000e+00 0.000000e+00 0.000000e+00 0.000000e+00 0.000000e+00 0.000000e+00  0.000000e+00 
8.670306e-01 -5.049878e-02 0.000000e+00 65 1  3.630268e-05 7.382405e+04 -7.368608e+04 4.428350e+03 -8.611904e+02 0.000000e+00  0.000000e+00 
8.626275e-01 -1.008267e-01 0.000000e+00 65 1  -4.029646e-06 7.547656e+04 -7.494810e+04 8.894544e+03 -6.170738e+02 0.000000e+00  0.000000e+00 
8.553055e-01 -1.508134e-01 0.000000e+00 65 1  -1.544059e-05 7.066080e+04 -6.956039e+04 1.242077e+04 1.595249e+02 0.000000e+00  0.000000e+00 
8.450895e-01 -2.002899e-01 0.000000e+00 65 1  -2.888637e-05 7.305363e+04 -7.116654e+04 1.649675e+04 -1.219271e+02 0.000000e+00  0.000000e+00 
8.320139e-01 -2.490886e-01 0.000000e+00 65 1  -3.445081e-05 7.235037e+04 -6.923053e+04 2.100892e+04 5.787823e+02 0.000000e+00  0.000000e+00 
8.161230e-01 -2.970445e-01 0.000000e+00 65 1  -6.237604e-06 7.170508e+04 -6.746271e+04 2.429810e+04 6.771856e+01 0.000000e+00  0.000000e+00 
7.974707e-01 -3.439953e-01 0.000000e+00 65 1  -2.771233e-06 6.392824e+04 -5.865857e+04 2.540758e+04 -6.689328e+02 0.000000e+00  0.000000e+00 
7.761199e-01 -3.897821e-01 0.000000e+00 65 1  -3.285343e-05 6.728290e+04 -5.996161e+04 3.051866e+04 -4.536922e+02 0.000000e+00  0.000000e+00 
7.521431e-01 -4.342500e-01 0.000000e+00 65 1  -1.031367e-05 5.860727e+04 -5.092166e+04 2.901061e+04 4.251014e+02 0.000000e+00  0.000000e+00 
7.256212e-01 -4.772485e-01 0.000000e+00 65 1  -7.659145e-06 5.140031e+04 -4.302247e+04 2.812304e+04 -3.910798e+02 0.000000e+00  0.000000e+00 
6.966440e-01 -5.186322e-01 0.000000e+00 65 1  -1.947205e-05 5.073088e+04 -4.075803e+04 3.020451e+04 -3.039758e+02 0.000000e+00  0.000000e+00 
6.653096e-01 -5.582610e-01 0.000000e+00 65 1  -4.495717e-05 4.873941e+04 -3.740308e+04 3.124950e+04 -8.798498e+01 0.000000e+00  0.000000e+00 
6.317240e-01 -5.960009e-01 0.000000e+00 65 1  6.711801e-07 4.306331e+04 -3.142203e+04 2.944662e+04 -3.667386e+01 0.000000e+00  0.000000e+00 
5.960009e-01 -6.317240e-01 0.000000e+00 65 1  -2.265338e-06 3.739713e+04 -2.572993e+04 2.713860e+04 -1.109799e+02 0.000000e+00  0.000000e+00 
5.582610e-01 -6.653096e-01 0.000000e+00 65 1  -1.086022e-06 3.465521e+04 -2.212108e+04 2.667504e+04 -2.888551e+02 0.000000e+00  0.000000e+00 
5.186322e-01 -6.966440e-01 0.000000e+00 65 1  3.542959e-06 3.207469e+04 -1.918660e+04 2.570331e+04 -2.632122e+01 0.000000e+00  0.000000e+00 
4.772485e-01 -7.256212e-01 0.000000e+00 65 1  8.821033e-07 2.657613e+04 -1.465307e+04 2.217097e+04 1.615686e+02 0.000000e+00  0.000000e+00 
4.342500e-01 -7.521431e-01 0.000000e+00 65 1  1.260122e-07 2.127709e+04 -1.076937e+04 1.835024e+04 -6.346258e+01 0.000000e+00  0.000000e+00 
3.897821e-01 -7.761199e-01 0.000000e+00 65 1  -1.984229e-06 1.724137e+04 -7.745530e+03 1.540362e+04 -1.108807e+01 0.000000e+00  0.000000e+00 
3.439953e-01 -7.974707e-01 0.000000e+00 65 1  -3.728641e-07 1.289292e+04 -5.098721e+03 1.184188e+04 1.251214e+01 0.000000e+00  0.000000e+00 
2.970445e-01 -8.161230e-01 0.000000e+00 65 1  9.569793e-08 9.403026e+03 -3.304570e+03 8.803187e+03 2.485053e+01 0.000000e+00  0.000000e+00 
2.490886e-01 -8.320139e-01 0.000000e+00 65 1  -5.350671e-08 6.035999e+03 -1.722429e+03 5.784815e+03 -4.942683e+01 0.000000e+00  0.000000e+00 
2.002899e-01 -8.450895e-01 0.000000e+00 65 1  1.347422e-07 3.856916e+03 -8.855961e+02 3.753867e+03 1.652182e+00 0.000000e+00  0.000000e+00 
1.508134e-01 -8.553055e-01 0.000000e+00 65 1  -6.889761e-10 2.471111e+03 -4.496825e+02 2.429706e+03 2.656008e+01 0.000000e+00  0.000000e+00 
1.008267e-01 -8.626275e-01 0.000000e+00 65 1  -1.147133e-09 1.011048e+03 -1.283490e+02 1.002677e+03 -1.956678e+01 0.000000e+00  0.000000e+00 
5.049878e-02 -8.670306e-01 0.000000e+00 65 1  -7.944853e-10 3.810834e+02 -2.732071e+01 3.800999e+02 1.467546e+00 0.000000e+00  0.000000e+00 
5.049878e-02 -6.184317e-18 8.670306e-01 65 1  3.666863e-11 4.469354e+02 -3.539836e+01 8.722226e-01 -4.455305e+02 0.000000e+00  0.000000e+00 
1.008267e-01 -1.234771e-17 8.626275e-01 65 1  -5.911986e-09 1.368355e+03 -1.701981e+02 5.187351e+00 -1.357720e+03 0.000000e+00  0.000000e+00 
1.508134e-01 -1.846932e-17 8.553055e-01 65 1  -5.790279e-09 2.744769e+03 -4.923481e+02 -3.072591e+00 -2.700248e+03 0.000000e+00  0.000000e+00 
2.002899e-01 -2.452844e-17 8.450895e-01 65 1  -2.094818e-08 3.646215e+03 -8.456242e+02 1.976106e+01 -3.546747e+03 0.000000e+00  0.000000e+00 
2.490886e-01 -3.050456e-17 8.320139e-01 65 1  3.831255e-08 5.455167e+03 -1.596715e+03 -4.136645e+01 -5.216094e+03 0.000000e+00  0.000000e+00 
2.970445e-01 -3.637746e-17 8.161230e-01 65 1  -2.774792e-07 9.203722e+03 -3.224236e+03 -1.701158e+01 -8.620471e+03 0.000000e+00  0.000000e+00 
3.439953e-01 -4.212727e-17 7.974707e-01 65 1  -9.329366e-07 1.205975e+04 -4.719010e+03 4.231982e+01 -1.109805e+04 0.000000e+00  0.000000e+00 
3.897821e-01 -4.773454e-17 7.761199e-01 65 1  -7.629145e-07 1.742249e+04 -7.929340e+03 7.762686e+01 -1.551331e+04 0.000000e+00  0.000000e+00 
4.342500e-01 -5.318029e-17 7.521431e-01 65 1  5.503755e-07 1.976210e+04 -9.751891e+03 1.118009e+02 -1.718804e+04 0.000000e+00  0.000000e+00 
4.772485e-01 -5.844609e-17 7.256212e-01 65 1  4.258348e-07 2.509939e+04 -1.388714e+04 1.336113e+02 -2.090715e+04 0.000000e+00  0.000000e+00 
5.186322e-01 -6.351413e-17 6.966440e-01 65 1  1.035786e-06 2.888055e+04 -1.718424e+04 2.119449e+02 -2.321084e+04 0.000000e+00  0.000000e+00 
5.582610e-01 -6.836726e-17 6.653096e-01 65 1  7.890133e-07 3.358718e+04 -2.164460e+04 4.525323e+02 -2.567889e+04 0.000000e+00  0.000000e+00 
5.960009e-01 -7.298906e-17 6.317240e-01 65 1  4.747053e-06 3.563578e+04 -2.434802e+04 5.625523e+01 -2.602075e+04 0.000000e+00  0.000000e+00 
6.317240e-01 -7.736388e-17 5.960009e-01 65 1  -1.163520e-06 3.889936e+04 -2.836201e+04 4.273040e+01 -2.662245e+04 0.000000e+00  0.000000e+00 
6.653096e-01 -8.147693e-17 5.582610e-01 65 1  5.299252e-06 4.857916e+04 -3.747016e+04 -2.014975e+02 -3.091734e+04 0.000000e+00  0.000000e+00 
6.966440e-01 -8.531428e-17 5.186322e-01 65 1  8.300214e-06 5.358529e+04 -4.292393e+04 -4.619592e+02 -3.207345e+04 0.000000e+00  0.000000e+00 
7.256212e-01 -8.886296e-17 4.772485e-01 65 1  6.571435e-06 5.395106e+04 -4.511086e+04 -2.582837e+02 -2.959156e+04 0.000000e+00  0.000000e+00 
7.521431e-01 -9.211096e-17 4.342500e-01 65 1  3.983546e-06 6.535371e+04 -5.661369e+04 -3.665237e+02 -3.264755e+04 0.000000e+00  0.000000e+00 
7.761199e-01 -9.504728e-17 3.897821e-01 65 1  -3.172658e-05 6.849143e+04 -6.137583e+04 7.091574e+02 -3.039048e+04 0.000000e+00  0.000000e+00 
7.974707e-01 -9.766199e-17 3.439953e-01 65 1  -4.350709e-05 6.421562e+04 -5.897465e+04 4.636182e+02 -2.540514e+04 0.000000e+00  0.000000e+00 
8.161230e-01 -9.994625e-17 2.970445e-01 65 1  -1.080083e-05 7.111430e+04 -6.673062e+04 2.021975e+02 -2.458103e+04 0.000000e+00  0.000000e+00 
8.320139e-01 -1.018923e-16 2.490886e-01 65 1  -8.053116e-06 7.272694e+04 -6.962607e+04 8.503532e+00 -2.100994e+04 0.000000e+00  0.000000e+00 
8.450895e-01 -1.034936e-16 2.002899e-01 65 1  1.830384e-05 6.806038e+04 -6.627944e+04 -4.385050e+02 -1.546154e+04 0.000000e+00  0.000000e+00 
8.553055e-01 -1.047447e-16 1.508134e-01 65 1  2.890373e-05 7.264468e+04 -7.150901e+04 -2.324746e+02 -1.279287e+04 0.000000e+00  0.000000e+00 
8.626275e-01 -1.056414e-16 1.008267e-01 65 1  -6.734206e-05 7.813011e+04 -7.761110e+04 1.199165e+03 -8.910295e+03 0.000000e+00  0.000000e+00 
8.670306e-01 -1.061806e-16 5.049878e-02 65 1  -8.107767e-05 8.039276e+04 -8.025509e+04 2.532308e+02 -4.695956e+03 0.000000e+00  0.000000e+00 
5.049878e-02 8.670306e-01 0.000000e+00 69 1  -4.023165e-10 2.505692e+02 -1.821995e+01 -2.499032e+02 -1.161141e+00 0.000000e+00  0.000000e+00 
1.008267e-01 8.626275e-01 0.000000e+00 69 1  5.599772e-09 8.040513e+02 -1.006897e+02 -7.976777e+02 -8.392088e+00 0.000000e+00  0.000000e+00 
1.508134e-01 8.553055e-01 0.000000e+00 69 1  -7.312340e-10 2.006976e+03 -3.698282e+02 -1.972555e+03 1.427090e+01 0.000000e+00  0.000000e+00 
2.002899e-01 8.450895e-01 0.000000e+00 69 1  -1.627746e-08 4.573183e+03 -1.071246e+03 -4.445854e+03 2.864125e+01 0.000000e+00  0.000000e+00 
2.490886e-01 8.320139e-01 0.000000e+00 69 1  1.749132e-08 6.518719e+03 -1.888486e+03 -6.239164e+03 -1.225656e+01 0.000000e+00  0.000000e+00 
2.970445e-01 8.161230e-01 0.000000e+00 69 1  4.142928e-07 9.390141e+03 -3.280130e+03 -8.798573e+03 -2.489590e+01 0.000000e+00  0.000000e+00 
3.439953e-01 7.974707e-01 0.000000e+00 69 1  3.030378e-07 1.250291e+04 -5.008583e+03 -1.145526e+04 -1.173222e+02 0.000000e+00  0.000000e+00 
3.897821e-01 7.761199e-01 0.000000e+00 69 1  -5.163869e-07 1.787603e+04 -8.003425e+03 -1.598377e+04 -1.293253e+02 0.000000e+00  0.000000e+00 
4.342500e-01 7.521431e-01 0.000000e+00 69 1  1.627702e-06 2.121284e+04 -1.062133e+04 -1.836135e+04 1.813772e+02 0.000000e+00  0.000000e+00 
4.772485e-01 7.256212e-01 0.000000e+00 69 1  -6.685257e-07 2.265346e+04 -1.243894e+04 -1.893254e+04 1.040703e+02 0.000000e+00  0.000000e+00 
5.186322e-01 6.966440e-01 0.000000e+00 69 1  -8.558528e-07 2.772231e+04 -1.664308e+04 -2.216818e+04 3.257239e+02 0.000000e+00  0.000000e+00 
5.582610e-01 6.653096e-01 0.000000e+00 69 1  -7.966527e-06 3.244663e+04 -2.078982e+04 -2.491096e+04 1.071084e+02 0.000000e+00  0.000000e+00 
5.960009e-01 6.317240e-01 0.000000e+00 69 1  -8.638539e-06 3.747478e+04 -2.575644e+04 -2.722064e+04 -3.746580e+01 0.000000e+00  0.000000e+00 
6.317240e-01 5.960009e-01 0.000000e+00 69 1  2.009538e-06 4.218243e+04 -3.078333e+04 -2.883989e+04 -6.939086e+01 0.000000e+00  0.000000e+00 
6.653096e-01 5.582610e-01 0.000000e+00 69 1  1.446944e-06 4.253581e+04 -3.256771e+04 -2.735686e+04 -4.913654e+02 0.000000e+00  0.000000e+00 
6.966440e-01 5.186322e-01 0.000000e+00 69 1  2.516975e-06 4.917469e+04 -3.958819e+04 -2.916603e+04 -5.182724e+02 0.000000e+00  0.000000e+00 
7.256212e-01 4.772485e-01 0.000000e+00 69 1  -3.393449e-06 5.900172e+04 -4.930845e+04 -3.240051e+04 -2.937635e+02 0.000000e+00  0.000000e+00 
7.521431e-01 4.342500e-01 0.000000e+00 69 1  -2.839705e-05 5.901519e+04 -5.131255e+04 -2.915158e+04 6.127006e+00 0.000000e+00  0.000000e+00 
7.761199e-01 3.897821e-01 0.000000e+00 69 1  -2.198530e-05 6.209730e+04 -5.537819e+04 -2.809504e+04 3.139562e-01 0.000000e+00  0.000000e+00 
7.974707e-01 3.439953e-01 0.000000e+00 69 1  1.848002e-05 6.396049e+04 -5.891899e+04 -2.488357e+04 -5.517447e+02 0.000000e+00  0.000000e+00 
8.161230e-01 2.970445e-01 0.000000e+00 69 1  2.659898e-05 6.505883e+04 -6.111285e+04 -2.231298e+04 3.532611e+01 0.000000e+00  0.000000e+00 