VARIABLES="X","Y","Z","faceat","Mesh File ID", "EnergyTransferRate[s=0]", "absMomentumTransferRate[s=0]", "MomentumTransferRateX[s=0]", "MomentumTransferRateY[s=0]", "MomentumTransferRateZ[s=0]", "Surface Aboundance [m^-2][s=0]" , "SourceRate [m^-2 s^-1][s=0]" 
ZONE N=4377, E=8748, DATAPACKING=POINT, ZONETYPE=FETRIANGLE
0.000000e+00 0.000000e+00 0.000000e+00 -1 -1  0.000000e+00 0.000000e+00 0.000000e+00 0.000000e+00 0.000000e+00 0.000000e+00  0.000000e+00 
-8.685000e-01 0.000000e+00 0.000000e+00 60 1  0.000000e+00 0.000000e+00 0.000000e+00 0.000000e+00 0.000000e+00 0.000000e+00  0.000000e+00 
0.000000e+00 8.685000e-01 0.000000e+00 60 1  -3.031896e-10 6.394382e+01 -1.436542e+00 -6.392638e+01 -4.083773e-01 0.000000e+00  0.000000e+00 
0.000000e+00 0.000000e+00 8.685000e-01 60 1  4.385305e-12 1.768739e+01 -4.591911e-01 -4.733933e-02 -1.768137e+01 0.000000e+00  0.000000e+00 
-5.318029e-17 -8.685000e-01 0.000000e+00 61 1  -5.816499e-10 3.391353e+01 -8.916737e-01 3.390015e+01 3.350303e-01 0.000000e+00  0.000000e+00 
8.685000e-01 -1.063606e-16 0.000000e+00 65 1  6.014015e-06 7.273952e+04 -7.273806e+04 4.033162e+02 -2.246120e+02 0.000000e+00  0.000000e+00 
-5.318029e-17 0.000000e+00 -8.685000e-01 71 1  -6.382533e-10 3.499722e+01 -9.871384e-01 -7.736024e-02 3.498321e+01 0.000000e+00  0.000000e+00 
-8.670306e-01 5.049878e-02 0.000000e+00 60 1  0.000000e+00 0.000000e+00 0.000000e+00 0.000000e+00 0.000000e+00 0.000000e+00  0.000000e+00 
-8.626275e-01 1.008267e-01 0.000000e+00 60 1  0.000000e+00 0.000000e+00 0.000000e+00 0.000000e+00 0.000000e+00 0.000000e+00  0.000000e+00 
-8.553055e-01 1.508134e-01 0.000000e+00 60 1  0.000000e+00 0.000000e+00 0.000000e+00 0.000000e+00 0.000000e+00 0.000000e+00  0.000000e+00 
-8.450895e-01 2.002899e-01 0.000000e+00 60 1  0.000000e+00 0.000000e+00 0.000000e+00 0.000000e+00 0.000000e+00 0.000000e+00  0.000000e+00 
-8.320139e-01 2.490886e-01 0.000000e+00 60 1  0.000000e+00 0.000000e+00 0.000000e+00 0.000000e+00 0.000000e+00 0.000000e+00  0.000000e+00 
-8.161230e-01 2.970445e-01 0.000000e+00 60 1  0.000000e+00 0.000000e+00 0.000000e+00 0.000000e+00 0.000000e+00 0.000000e+00  0.000000e+00 
-7.974707e-01 3.439953e-01 0.000000e+00 60 1  0.000000e+00 0.000000e+00 0.000000e+00 0.000000e+00 0.000000e+00 0.000000e+00  0.000000e+00 
-7.761199e-01 3.897821e-01 0.000000e+00 60 1  0.000000e+00 0.000000e+00 0.000000e+00 0.000000e+00 0.000000e+00 0.000000e+00  0.000000e+00 
-7.521431e-01 4.342500e-01 0.000000e+00 60 1  0.000000e+00 0.000000e+00 0.000000e+00 0.000000e+00 0.000000e+00 0.000000e+00  0.000000e+00 
-7.256212e-01 4.772485e-01 0.000000e+00 60 1  0.000000e+00 0.000000e+00 0.000000e+00 0.000000e+00 0.000000e+00 0.000000e+00  0.000000e+00 
-6.966440e-01 5.186322e-01 0.000000e+00 60 1  0.000000e+00 0.000000e+00 0.000000e+00 0.000000e+00 0.000000e+00 0.000000e+00  0.000000e+00 
-6.653096e-01 5.582610e-01 0.000000e+00 60 1  0.000000e+00 0.000000e+00 0.000000e+00 0.000000e+00 0.000000e+00 0.000000e+00  0.000000e+00 
-6.317240e-01 5.960009e-01 0.000000e+00 60 1  0.000000e+00 0.000000e+00 0.000000e+00 0.000000e+00 0.000000e+00 0.000000e+00  0.000000e+00 
-5.960009e-01 6.317240e-01 0.000000e+00 60 1  0.000000e+00 0.000000e+00 0.000000e+00 0.000000e+00 0.000000e+00 0.000000e+00  0.000000e+00 
-5.582610e-01 6.653096e-01 0.000000e+00 60 1  0.000000e+00 0.000000e+00 0.000000e+00 0.000000e+00 0.000000e+00 0.000000e+00  0.000000e+00 
-5.186322e-01 6.966440e-01 0.000000e+00 60 1  0.000000e+00 0.000000e+00 0.000000e+00 0.000000e+00 0.000000e+00 0.000000e+00  0.000000e+00 
-4.772485e-01 7.256212e-01 0.000000e+00 60 1  0.000000e+00 0.000000e+00 0.000000e+00 0.000000e+00 0.000000e+00 0.000000e+00  0.000000e+00 
-4.342500e-01 7.521431e-01 0.000000e+00 60 1  0.000000e+00 0.000000e+00 0.000000e+00 0.000000e+00 0.000000e+00 0.000000e+00  0.000000e+00 
-3.897821e-01 7.761199e-01 0.000000e+00 60 1  0.000000e+00 0.000000e+00 0.000000e+00 0.000000e+00 0.000000e+00 0.000000e+00  0.000000e+00 
-3.439953e-01 7.974707e-01 0.000000e+00 60 1  0.000000e+00 0.000000e+00 0.000000e+00 0.000000e+00 0.000000e+00 0.000000e+00  0.000000e+00 
-2.970445e-01 8.161230e-01 0.000000e+00 60 1  0.000000e+00 0.000000e+00 0.000000e+00 0.000000e+00 0.000000e+00 0.000000e+00  0.000000e+00 
-2.490886e-01 8.320139e-01 0.000000e+00 60 1  0.000000e+00 0.000000e+00 0.000000e+00 0.000000e+00 0.000000e+00 0.000000e+00  0.000000e+00 
-2.002899e-01 8.450895e-01 0.000000e+00 60 1  0.000000e+00 0.000000e+00 0.000000e+00 0.000000e+00 0.000000e+00 0.000000e+00  0.000000e+00 
-1.508134e-01 8.553055e-01 0.000000e+00 60 1  0.000000e+00 0.000000e+00 0.000000e+00 0.000000e+00 0.000000e+00 0.000000e+00  0.000000e+00 
-1.008267e-01 8.626275e-01 0.000000e+00 60 1  0.000000e+00 0.000000e+00 0.000000e+00 0.000000e+00 0.000000e+00 0.000000e+00  0.000000e+00 
-5.049878e-02 8.670306e-01 0.000000e+00 60 1  0.000000e+00 0.000000e+00 0.000000e+00 0.000000e+00 0.000000e+00 0.000000e+00  0.000000e+00 
-5.049878e-02 0.000000e+00 8.670306e-01 60 1  0.000000e+00 0.000000e+00 0.000000e+00 0.000000e+00 0.000000e+00 0.000000e+00  0.000000e+00 
-1.008267e-01 0.000000e+00 8.626275e-01 60 1  0.000000e+00 0.000000e+00 0.000000e+00 0.000000e+00 0.000000e+00 0.000000e+00  0.000000e+00 
-1.508134e-01 0.000000e+00 8.553055e-01 60 1  0.000000e+00 0.000000e+00 0.000000e+00 0.000000e+00 0.000000e+00 0.000000e+00  0.000000e+00 
-2.002899e-01 0.000000e+00 8.450895e-01 60 1  0.000000e+00 0.000000e+00 0.000000e+00 0.000000e+00 0.000000e+00 0.000000e+00  0.000000e+00 
-2.490886e-01 0.000000e+00 8.320139e-01 60 1  0.000000e+00 0.000000e+00 0.000000e+00 0.000000e+00 0.000000e+00 0.000000e+00  0.000000e+00 
-2.970445e-01 0.000000e+00 8.161230e-01 60 1  0.000000e+00 0.000000e+00 0.000000e+00 0.000000e+00 0.000000e+00 0.000000e+00  0.000000e+00 
-3.439953e-01 0.000000e+00 7.974707e-01 60 1  0.000000e+00 0.000000e+00 0.000000e+00 0.000000e+00 0.000000e+00 0.000000e+00  0.000000e+00 
-3.897821e-01 0.000000e+00 7.761199e-01 60 1  0.000000e+00 0.000000e+00 0.000000e+00 0.000000e+00 0.000000e+00 0.000000e+00  0.000000e+00 
-4.342500e-01 0.000000e+00 7.521431e-01 60 1  0.000000e+00 0.000000e+00 0.000000e+00 0.000000e+00 0.000000e+00 0.000000e+00  0.000000e+00 
-4.772485e-01 0.000000e+00 7.256212e-01 60 1  0.000000e+00 0.000000e+00 0.000000e+00 0.000000e+00 0.000000e+00 0.000000e+00  0.000000e+00 
-5.186322e-01 0.000000e+00 6.966440e-01 60 1  0.000000e+00 0.000000e+00 0.000000e+00 0.000000e+00 0.000000e+00 0.000000e+00  0.000000e+00 
-5.582610e-01 0.000000e+00 6.653096e-01 60 1  0.000000e+00 0.000000e+00 0.000000e+00 0.000000e+00 0.000000e+00 0.000000e+00  0.000000e+00 
-5.960009e-01 0.000000e+00 6.317240e-01 60 1  0.000000e+00 0.000000e+00 0.000000e+00 0.000000e+00 0.000000e+00 0.000000e+00  0.000000e+00 
-6.317240e-01 0.000000e+00 5.960009e-01 60 1  0.000000e+00 0.000000e+00 0.000000e+00 0.000000e+00 0.000000e+00 0.000000e+00  0.000000e+00 
-6.653096e-01 0.000000e+00 5.582610e-01 60 1  0.000000e+00 0.000000e+00 0.000000e+00 0.000000e+00 0.000000e+00 0.000000e+00  0.000000e+00 
-6.966440e-01 0.000000e+00 5.186322e-01 60 1  0.000000e+00 0.000000e+00 0.000000e+00 0.000000e+00 0.000000e+00 0.000000e+00  0.000000e+00 
-7.256212e-01 0.000000e+00 4.772485e-01 60 1  0.000000e+00 0.000000e+00 0.000000e+00 0.000000e+00 0.000000e+00 0.000000e+00  0.000000e+00 
-7.521431e-01 0.000000e+00 4.342500e-01 60 1  0.000000e+00 0.000000e+00 0.000000e+00 0.000000e+00 0.000000e+00 0.000000e+00  0.000000e+00 
-7.761199e-01 0.000000e+00 3.897821e-01 60 1  0.000000e+00 0.000000e+00 0.000000e+00 0.000000e+00 0.000000e+00 0.000000e+00  0.000000e+00 
-7.974707e-01 0.000000e+00 3.439953e-01 60 1  0.000000e+00 0.000000e+00 0.000000e+00 0.000000e+00 0.000000e+00 0.000000e+00  0.000000e+00 
-8.161230e-01 0.000000e+00 2.970445e-01 60 1  0.000000e+00 0.000000e+00 0.000000e+00 0.000000e+00 0.000000e+00 0.000000e+00  0.000000e+00 
-8.320139e-01 0.000000e+00 2.490886e-01 60 1  0.000000e+00 0.000000e+00 0.000000e+00 0.000000e+00 0.000000e+00 0.000000e+00  0.000000e+00 
-8.450895e-01 0.000000e+00 2.002899e-01 60 1  0.000000e+00 0.000000e+00 0.000000e+00 0.000000e+00 0.000000e+00 0.000000e+00  0.000000e+00 
-8.553055e-01 0.000000e+00 1.508134e-01 60 1  0.000000e+00 0.000000e+00 0.000000e+00 0.000000e+00 0.000000e+00 0.000000e+00  0.000000e+00 
-8.626275e-01 0.000000e+00 1.008267e-01 60 1  0.000000e+00 0.000000e+00 0.000000e+00 0.000000e+00 0.000000e+00 0.000000e+00  0.000000e+00 
-8.670306e-01 0.000000e+00 5.049878e-02 60 1  0.000000e+00 0.000000e+00 0.000000e+00 0.000000e+00 0.000000e+00 0.000000e+00  0.000000e+00 
0.000000e+00 5.049878e-02 8.670306e-01 60 1  -1.782252e-10 1.234053e+01 -2.622941e-01 -6.401261e-01 -1.232113e+01 0.000000e+00  0.000000e+00 
0.000000e+00 1.008267e-01 8.626275e-01 60 1  -5.128696e-10 1.582191e+01 -5.017010e-01 -1.807721e+00 -1.571029e+01 0.000000e+00  0.000000e+00 
0.000000e+00 1.508134e-01 8.553055e-01 60 1  3.682168e-10 2.032782e+01 -5.122866e-01 -3.809561e+00 -1.996109e+01 0.000000e+00  0.000000e+00 
0.000000e+00 2.002899e-01 8.450895e-01 60 1  1.390676e-10 1.224841e+01 -1.748720e-01 -2.476591e+00 -1.199414e+01 0.000000e+00  0.000000e+00 
0.000000e+00 2.490886e-01 8.320139e-01 60 1  4.044561e-10 2.921932e+01 -8.476555e-01 -8.719530e+00 -2.787508e+01 0.000000e+00  0.000000e+00 
0.000000e+00 2.970445e-01 8.161230e-01 60 1  3.758154e-10 5.528030e+01 -1.685573e+00 -1.976747e+01 -5.159765e+01 0.000000e+00  0.000000e+00 
0.000000e+00 3.439953e-01 7.974707e-01 60 1  9.931900e-11 3.928091e+01 -1.085043e+00 -1.464743e+01 -3.643165e+01 0.000000e+00  0.000000e+00 
0.000000e+00 3.897821e-01 7.761199e-01 60 1  1.097839e-10 1.582050e+01 -2.816504e-01 -7.099279e+00 -1.413539e+01 0.000000e+00  0.000000e+00 
0.000000e+00 4.342500e-01 7.521431e-01 60 1  1.216137e-09 5.790980e+01 -1.986021e+00 -2.927680e+01 -4.992465e+01 0.000000e+00  0.000000e+00 
0.000000e+00 4.772485e-01 7.256212e-01 60 1  -3.291363e-10 1.628364e+01 -4.015436e-01 -9.337069e+00 -1.333472e+01 0.000000e+00  0.000000e+00 
0.000000e+00 5.186322e-01 6.966440e-01 60 1  -1.116059e-09 5.189350e+01 -1.770262e+00 -3.060698e+01 -4.186901e+01 0.000000e+00  0.000000e+00 
0.000000e+00 5.582610e-01 6.653096e-01 60 1  1.017707e-10 6.682561e+01 -2.214856e+00 -4.297398e+01 -5.112723e+01 0.000000e+00  0.000000e+00 
0.000000e+00 5.960009e-01 6.317240e-01 60 1  3.908045e-10 2.991383e+01 -8.392431e-01 -2.017511e+01 -2.207029e+01 0.000000e+00  0.000000e+00 
0.000000e+00 6.317240e-01 5.960009e-01 60 1  3.078073e-10 2.353193e+01 -6.810046e-01 -1.734655e+01 -1.588663e+01 0.000000e+00  0.000000e+00 
0.000000e+00 6.653096e-01 5.582610e-01 60 1  -2.979837e-10 1.778021e+01 -4.143748e-01 -1.352886e+01 -1.152971e+01 0.000000e+00  0.000000e+00 
0.000000e+00 6.966440e-01 5.186322e-01 60 1  -5.808729e-10 2.014646e+01 -6.628850e-01 -1.621446e+01 -1.193866e+01 0.000000e+00  0.000000e+00 
0.000000e+00 7.256212e-01 4.772485e-01 60 1  4.783252e-10 2.975202e+01 -7.857322e-01 -2.519601e+01 -1.580273e+01 0.000000e+00  0.000000e+00 
0.000000e+00 7.521431e-01 4.342500e-01 60 1  4.387130e-10 2.933120e+01 -6.086396e-01 -2.537433e+01 -1.470007e+01 0.000000e+00  0.000000e+00 
0.000000e+00 7.761199e-01 3.897821e-01 60 1  -1.815152e-10 2.455027e+01 -7.848276e-01 -2.165001e+01 -1.154890e+01 0.000000e+00  0.000000e+00 
0.000000e+00 7.974707e-01 3.439953e-01 60 1  -1.425678e-09 2.409207e+01 -8.553135e-01 -2.213159e+01 -9.480982e+00 0.000000e+00  0.000000e+00 
0.000000e+00 8.161230e-01 2.970445e-01 60 1  -2.487607e-09 3.133820e+01 -9.232004e-01 -2.940394e+01 -1.079994e+01 0.000000e+00  0.000000e+00 
0.000000e+00 8.320139e-01 2.490886e-01 60 1  -1.009189e-10 4.368274e+00 -9.064216e-02 -4.145659e+00 -1.373722e+00 0.000000e+00  0.000000e+00 
0.000000e+00 8.450895e-01 2.002899e-01 60 1  -2.652417e-10 2.961430e+01 -7.491024e-01 -2.885350e+01 -6.627320e+00 0.000000e+00  0.000000e+00 
0.000000e+00 8.553055e-01 1.508134e-01 60 1  4.321687e-10 2.274180e+01 -4.620392e-01 -2.232153e+01 -4.327274e+00 0.000000e+00  0.000000e+00 
0.000000e+00 8.626275e-01 1.008267e-01 60 1  -1.036927e-10 4.130165e+01 -1.351743e+00 -4.106450e+01 -4.207840e+00 0.000000e+00  0.000000e+00 
0.000000e+00 8.670306e-01 5.049878e-02 60 1  1.300322e-10 3.725721e+01 -8.647500e-01 -3.720800e+01 -1.707737e+00 0.000000e+00  0.000000e+00 
-5.049878e-02 -8.670306e-01 0.000000e+00 61 1  0.000000e+00 0.000000e+00 0.000000e+00 0.000000e+00 0.000000e+00 0.000000e+00  0.000000e+00 
-1.008267e-01 -8.626275e-01 0.000000e+00 61 1  0.000000e+00 0.000000e+00 0.000000e+00 0.000000e+00 0.000000e+00 0.000000e+00  0.000000e+00 
-1.508134e-01 -8.553055e-01 0.000000e+00 61 1  0.000000e+00 0.000000e+00 0.000000e+00 0.000000e+00 0.000000e+00 0.000000e+00  0.000000e+00 
-2.002899e-01 -8.450895e-01 0.000000e+00 61 1  0.000000e+00 0.000000e+00 0.000000e+00 0.000000e+00 0.000000e+00 0.000000e+00  0.000000e+00 
-2.490886e-01 -8.320139e-01 0.000000e+00 61 1  0.000000e+00 0.000000e+00 0.000000e+00 0.000000e+00 0.000000e+00 0.000000e+00  0.000000e+00 
-2.970445e-01 -8.161230e-01 0.000000e+00 61 1  0.000000e+00 0.000000e+00 0.000000e+00 0.000000e+00 0.000000e+00 0.000000e+00  0.000000e+00 
-3.439953e-01 -7.974707e-01 0.000000e+00 61 1  0.000000e+00 0.000000e+00 0.000000e+00 0.000000e+00 0.000000e+00 0.000000e+00  0.000000e+00 
-3.897821e-01 -7.761199e-01 0.000000e+00 61 1  0.000000e+00 0.000000e+00 0.000000e+00 0.000000e+00 0.000000e+00 0.000000e+00  0.000000e+00 
-4.342500e-01 -7.521431e-01 0.000000e+00 61 1  0.000000e+00 0.000000e+00 0.000000e+00 0.000000e+00 0.000000e+00 0.000000e+00  0.000000e+00 
-4.772485e-01 -7.256212e-01 0.000000e+00 61 1  0.000000e+00 0.000000e+00 0.000000e+00 0.000000e+00 0.000000e+00 0.000000e+00  0.000000e+00 
-5.186322e-01 -6.966440e-01 0.000000e+00 61 1  0.000000e+00 0.000000e+00 0.000000e+00 0.000000e+00 0.000000e+00 0.000000e+00  0.000000e+00 
-5.582610e-01 -6.653096e-01 0.000000e+00 61 1  0.000000e+00 0.000000e+00 0.000000e+00 0.000000e+00 0.000000e+00 0.000000e+00  0.000000e+00 
-5.960009e-01 -6.317240e-01 0.000000e+00 61 1  0.000000e+00 0.000000e+00 0.000000e+00 0.000000e+00 0.000000e+00 0.000000e+00  0.000000e+00 
-6.317240e-01 -5.960009e-01 0.000000e+00 61 1  0.000000e+00 0.000000e+00 0.000000e+00 0.000000e+00 0.000000e+00 0.000000e+00  0.000000e+00 
-6.653096e-01 -5.582610e-01 0.000000e+00 61 1  0.000000e+00 0.000000e+00 0.000000e+00 0.000000e+00 0.000000e+00 0.000000e+00  0.000000e+00 
-6.966440e-01 -5.186322e-01 0.000000e+00 61 1  0.000000e+00 0.000000e+00 0.000000e+00 0.000000e+00 0.000000e+00 0.000000e+00  0.000000e+00 
-7.256212e-01 -4.772485e-01 0.000000e+00 61 1  0.000000e+00 0.000000e+00 0.000000e+00 0.000000e+00 0.000000e+00 0.000000e+00  0.000000e+00 
-7.521431e-01 -4.342500e-01 0.000000e+00 61 1  0.000000e+00 0.000000e+00 0.000000e+00 0.000000e+00 0.000000e+00 0.000000e+00  0.000000e+00 
-7.761199e-01 -3.897821e-01 0.000000e+00 61 1  0.000000e+00 0.000000e+00 0.000000e+00 0.000000e+00 0.000000e+00 0.000000e+00  0.000000e+00 
-7.974707e-01 -3.439953e-01 0.000000e+00 61 1  0.000000e+00 0.000000e+00 0.000000e+00 0.000000e+00 0.000000e+00 0.000000e+00  0.000000e+00 
-8.161230e-01 -2.970445e-01 0.000000e+00 61 1  0.000000e+00 0.000000e+00 0.000000e+00 0.000000e+00 0.000000e+00 0.000000e+00  0.000000e+00 
-8.320139e-01 -2.490886e-01 0.000000e+00 61 1  0.000000e+00 0.000000e+00 0.000000e+00 0.000000e+00 0.000000e+00 0.000000e+00  0.000000e+00 
-8.450895e-01 -2.002899e-01 0.000000e+00 61 1  0.000000e+00 0.000000e+00 0.000000e+00 0.000000e+00 0.000000e+00 0.000000e+00  0.000000e+00 
-8.553055e-01 -1.508134e-01 0.000000e+00 61 1  0.000000e+00 0.000000e+00 0.000000e+00 0.000000e+00 0.000000e+00 0.000000e+00  0.000000e+00 
-8.626275e-01 -1.008267e-01 0.000000e+00 61 1  0.000000e+00 0.000000e+00 0.000000e+00 0.000000e+00 0.000000e+00 0.000000e+00  0.000000e+00 
-8.670306e-01 -5.049878e-02 0.000000e+00 61 1  0.000000e+00 0.000000e+00 0.000000e+00 0.000000e+00 0.000000e+00 0.000000e+00  0.000000e+00 
-3.092159e-18 -5.049878e-02 8.670306e-01 61 1  -4.674116e-11 4.353558e+00 -1.123274e-01 2.747781e-01 -4.343426e+00 0.000000e+00  0.000000e+00 
-6.173854e-18 -1.008267e-01 8.626275e-01 61 1  0.000000e+00 0.000000e+00 0.000000e+00 0.000000e+00 0.000000e+00 0.000000e+00  0.000000e+00 
-9.234660e-18 -1.508134e-01 8.553055e-01 61 1  -5.356704e-10 1.882779e+01 -4.715602e-01 3.806116e+00 -1.843303e+01 0.000000e+00  0.000000e+00 
-1.226422e-17 -2.002899e-01 8.450895e-01 61 1  -7.043952e-10 5.004292e+01 -1.697525e+00 1.062456e+01 -4.887259e+01 0.000000e+00  0.000000e+00 
-1.525228e-17 -2.490886e-01 8.320139e-01 61 1  -5.229871e-10 3.793441e+01 -1.439297e+00 1.105001e+01 -3.626079e+01 0.000000e+00  0.000000e+00 
-1.818873e-17 -2.970445e-01 8.161230e-01 61 1  6.975603e-10 1.466496e+01 -3.846709e-01 5.412530e+00 -1.362416e+01 0.000000e+00  0.000000e+00 
-2.106364e-17 -3.439953e-01 7.974707e-01 61 1  7.167284e-10 1.761854e+01 -4.790985e-01 6.566758e+00 -1.634201e+01 0.000000e+00  0.000000e+00 
-2.386727e-17 -3.897821e-01 7.761199e-01 61 1  -6.454641e-10 1.188318e+01 -2.665141e-01 5.419818e+00 -1.057187e+01 0.000000e+00  0.000000e+00 
-2.659014e-17 -4.342500e-01 7.521431e-01 61 1  1.194317e-09 2.847196e+01 -7.491442e-01 1.447354e+01 -2.450730e+01 0.000000e+00  0.000000e+00 
-2.922305e-17 -4.772485e-01 7.256212e-01 61 1  2.830495e-09 3.973881e+01 -1.036910e+00 2.181016e+01 -3.320263e+01 0.000000e+00  0.000000e+00 
-3.175707e-17 -5.186322e-01 6.966440e-01 61 1  1.144815e-09 6.638004e+01 -2.020357e+00 4.023742e+01 -5.275583e+01 0.000000e+00  0.000000e+00 
-3.418363e-17 -5.582610e-01 6.653096e-01 61 1  9.841888e-11 5.321535e+01 -1.536522e+00 3.327673e+01 -4.149907e+01 0.000000e+00  0.000000e+00 
-3.649453e-17 -5.960009e-01 6.317240e-01 61 1  -1.092915e-10 2.031858e+01 -6.691967e-01 1.385887e+01 -1.484347e+01 0.000000e+00  0.000000e+00 
-3.868194e-17 -6.317240e-01 5.960009e-01 61 1  1.720286e-10 2.187660e+01 -7.608317e-01 1.596797e+01 -1.493422e+01 0.000000e+00  0.000000e+00 
-4.073846e-17 -6.653096e-01 5.582610e-01 61 1  2.073137e-10 8.103787e+00 -9.093881e-02 6.356337e+00 -5.025940e+00 0.000000e+00  0.000000e+00 
-4.265714e-17 -6.966440e-01 5.186322e-01 61 1  9.360561e-10 3.123984e+01 -7.919976e-01 2.497634e+01 -1.874787e+01 0.000000e+00  0.000000e+00 
-4.443148e-17 -7.256212e-01 4.772485e-01 61 1  0.000000e+00 0.000000e+00 0.000000e+00 0.000000e+00 0.000000e+00 0.000000e+00  0.000000e+00 
-4.605548e-17 -7.521431e-01 4.342500e-01 61 1  -4.389452e-11 5.754032e+01 -1.981465e+00 4.999505e+01 -2.841579e+01 0.000000e+00  0.000000e+00 
-4.752364e-17 -7.761199e-01 3.897821e-01 61 1  -2.349120e-10 2.203602e+01 -7.218691e-01 1.957388e+01 -1.009596e+01 0.000000e+00  0.000000e+00 
-4.883100e-17 -7.974707e-01 3.439953e-01 61 1  2.742346e-10 8.219712e+00 -2.465486e-01 7.562766e+00 -3.210520e+00 0.000000e+00  0.000000e+00 
-4.997312e-17 -8.161230e-01 2.970445e-01 61 1  -2.567360e-10 6.418836e+01 -2.263584e+00 6.044715e+01 -2.147473e+01 0.000000e+00  0.000000e+00 
-5.094616e-17 -8.320139e-01 2.490886e-01 61 1  7.867890e-11 5.860424e+01 -2.041552e+00 5.612796e+01 -1.673143e+01 0.000000e+00  0.000000e+00 
-5.174681e-17 -8.450895e-01 2.002899e-01 61 1  -4.494258e-10 2.793089e+01 -8.193476e-01 2.718649e+01 -6.352797e+00 0.000000e+00  0.000000e+00 
-5.237236e-17 -8.553055e-01 1.508134e-01 61 1  -1.178088e-10 2.376027e+01 -6.910443e-01 2.341799e+01 -3.958629e+00 0.000000e+00  0.000000e+00 
-5.282070e-17 -8.626275e-01 1.008267e-01 61 1  1.031823e-10 2.118056e+00 -1.614315e-02 2.109935e+00 -1.845953e-01 0.000000e+00  0.000000e+00 
-5.309031e-17 -8.670306e-01 5.049878e-02 61 1  1.232853e-10 2.530717e+00 -1.928832e-02 2.521014e+00 -2.205601e-01 0.000000e+00  0.000000e+00 
8.670306e-01 -5.049878e-02 0.000000e+00 65 1  5.114639e-05 7.327238e+04 -7.313090e+04 4.470458e+03 -8.531420e+02 0.000000e+00  0.000000e+00 
8.626275e-01 -1.008267e-01 0.000000e+00 65 1  -1.751735e-06 7.664555e+04 -7.610679e+04 9.053964e+03 -5.670502e+02 0.000000e+00  0.000000e+00 
8.553055e-01 -1.508134e-01 0.000000e+00 65 1  -8.189637e-06 7.789879e+04 -7.669034e+04 1.366658e+04 -1.967124e+02 0.000000e+00  0.000000e+00 
8.450895e-01 -2.002899e-01 0.000000e+00 65 1  -2.935038e-05 7.911752e+04 -7.705902e+04 1.792853e+04 -2.392237e+02 0.000000e+00  0.000000e+00 
8.320139e-01 -2.490886e-01 0.000000e+00 65 1  -2.984975e-05 7.392301e+04 -7.074804e+04 2.142427e+04 5.721324e+02 0.000000e+00  0.000000e+00 
8.161230e-01 -2.970445e-01 0.000000e+00 65 1  6.333871e-06 7.609539e+04 -7.154680e+04 2.591389e+04 1.880885e+02 0.000000e+00  0.000000e+00 
7.974707e-01 -3.439953e-01 0.000000e+00 65 1  1.257692e-06 6.369159e+04 -5.854327e+04 2.507986e+04 -5.523720e+02 0.000000e+00  0.000000e+00 
7.761199e-01 -3.897821e-01 0.000000e+00 65 1  -3.347102e-05 5.747947e+04 -5.119370e+04 2.613493e+04 -2.456960e+02 0.000000e+00  0.000000e+00 
7.521431e-01 -4.342500e-01 0.000000e+00 65 1  -9.487831e-06 6.230341e+04 -5.407361e+04 3.094451e+04 4.425712e+02 0.000000e+00  0.000000e+00 
7.256212e-01 -4.772485e-01 0.000000e+00 65 1  -6.116142e-06 5.857875e+04 -4.903919e+04 3.203730e+04 -4.891974e+02 0.000000e+00  0.000000e+00 
6.966440e-01 -5.186322e-01 0.000000e+00 65 1  -1.924933e-05 5.457106e+04 -4.383741e+04 3.249910e+04 -3.011702e+02 0.000000e+00  0.000000e+00 
6.653096e-01 -5.582610e-01 0.000000e+00 65 1  -3.259775e-05 4.585862e+04 -3.528087e+04 2.929608e+04 -1.117171e+02 0.000000e+00  0.000000e+00 
6.317240e-01 -5.960009e-01 0.000000e+00 65 1  1.505295e-06 4.096137e+04 -2.982491e+04 2.807662e+04 -1.076491e+02 0.000000e+00  0.000000e+00 
5.960009e-01 -6.317240e-01 0.000000e+00 65 1  -5.290716e-06 3.791655e+04 -2.609299e+04 2.750994e+04 -1.555023e+02 0.000000e+00  0.000000e+00 
5.582610e-01 -6.653096e-01 0.000000e+00 65 1  -2.380879e-06 3.444436e+04 -2.201256e+04 2.649028e+04 -3.552043e+02 0.000000e+00  0.000000e+00 
5.186322e-01 -6.966440e-01 0.000000e+00 65 1  3.273827e-06 2.968901e+04 -1.779689e+04 2.376355e+04 -4.150711e+01 0.000000e+00  0.000000e+00 
4.772485e-01 -7.256212e-01 0.000000e+00 65 1  1.106568e-06 2.479782e+04 -1.365672e+04 2.069724e+04 2.241590e+02 0.000000e+00  0.000000e+00 
4.342500e-01 -7.521431e-01 0.000000e+00 65 1  9.988952e-07 2.084227e+04 -1.052959e+04 1.798667e+04 -8.617400e+01 0.000000e+00  0.000000e+00 
3.897821e-01 -7.761199e-01 0.000000e+00 65 1  -1.410327e-06 1.811919e+04 -8.146459e+03 1.618457e+04 -8.072484e+00 0.000000e+00  0.000000e+00 
3.439953e-01 -7.974707e-01 0.000000e+00 65 1  7.046956e-08 1.302097e+04 -5.134919e+03 1.196570e+04 1.406950e+01 0.000000e+00  0.000000e+00 
2.970445e-01 -8.161230e-01 0.000000e+00 65 1  -4.200694e-07 1.047835e+04 -3.710393e+03 9.799404e+03 1.977420e+01 0.000000e+00  0.000000e+00 
2.490886e-01 -8.320139e-01 0.000000e+00 65 1  -7.119428e-07 6.185290e+03 -1.760592e+03 5.929236e+03 -4.782436e+01 0.000000e+00  0.000000e+00 
2.002899e-01 -8.450895e-01 0.000000e+00 65 1  2.339893e-07 3.363424e+03 -7.749947e+02 3.272885e+03 1.516297e+01 0.000000e+00  0.000000e+00 
1.508134e-01 -8.553055e-01 0.000000e+00 65 1  1.971042e-07 2.556578e+03 -4.548844e+02 2.515622e+03 2.866929e+01 0.000000e+00  0.000000e+00 
1.008267e-01 -8.626275e-01 0.000000e+00 65 1  8.949293e-08 1.293317e+03 -1.668183e+02 1.282276e+03 -2.462968e+01 0.000000e+00  0.000000e+00 
5.049878e-02 -8.670306e-01 0.000000e+00 65 1  -1.279073e-08 3.151980e+02 -2.229474e+01 3.144050e+02 -1.494554e+00 0.000000e+00  0.000000e+00 
5.049878e-02 -6.184317e-18 8.670306e-01 65 1  -4.684396e-10 3.297506e+02 -2.524794e+01 -3.233697e-01 -3.287824e+02 0.000000e+00  0.000000e+00 
1.008267e-01 -1.234771e-17 8.626275e-01 65 1  1.548356e-07 1.146596e+03 -1.444916e+02 6.896114e+00 -1.137435e+03 0.000000e+00  0.000000e+00 
1.508134e-01 -1.846932e-17 8.553055e-01 65 1  1.704179e-07 2.416597e+03 -4.285697e+02 -2.463753e+01 -2.378163e+03 0.000000e+00  0.000000e+00 
2.002899e-01 -2.452844e-17 8.450895e-01 65 1  1.240413e-07 4.681100e+03 -1.118736e+03 1.689912e+01 -4.545420e+03 0.000000e+00  0.000000e+00 
2.490886e-01 -3.050456e-17 8.320139e-01 65 1  -2.162129e-07 6.333557e+03 -1.829418e+03 -5.036740e+01 -6.063385e+03 0.000000e+00  0.000000e+00 
2.970445e-01 -3.637746e-17 8.161230e-01 65 1  -5.214080e-07 9.672108e+03 -3.373384e+03 -2.709181e+01 -9.064724e+03 0.000000e+00  0.000000e+00 
3.439953e-01 -4.212727e-17 7.974707e-01 65 1  -3.442242e-06 1.229733e+04 -4.837362e+03 4.758803e+01 -1.130583e+04 0.000000e+00  0.000000e+00 
3.897821e-01 -4.773454e-17 7.761199e-01 65 1  -2.846721e-06 1.460494e+04 -6.617832e+03 4.138963e+01 -1.301948e+04 0.000000e+00  0.000000e+00 
4.342500e-01 -5.318029e-17 7.521431e-01 65 1  -6.364730e-07 1.905990e+04 -9.473478e+03 7.197309e+01 -1.653867e+04 0.000000e+00  0.000000e+00 
4.772485e-01 -5.844609e-17 7.256212e-01 65 1  -6.820132e-07 2.654165e+04 -1.468476e+04 3.208324e+01 -2.210919e+04 0.000000e+00  0.000000e+00 
5.186322e-01 -6.351413e-17 6.966440e-01 65 1  1.873682e-06 2.758534e+04 -1.634758e+04 2.937140e+02 -2.221759e+04 0.000000e+00  0.000000e+00 
5.582610e-01 -6.836726e-17 6.653096e-01 65 1  2.435520e-06 3.276739e+04 -2.117023e+04 5.651067e+02 -2.500408e+04 0.000000e+00  0.000000e+00 
5.960009e-01 -7.298906e-17 6.317240e-01 65 1  3.571988e-06 3.972443e+04 -2.715272e+04 2.010141e+02 -2.899517e+04 0.000000e+00  0.000000e+00 
6.317240e-01 -7.736388e-17 5.960009e-01 65 1  -1.993568e-07 4.590392e+04 -3.351636e+04 1.599149e+02 -3.136555e+04 0.000000e+00  0.000000e+00 
6.653096e-01 -8.147693e-17 5.582610e-01 65 1  9.825837e-06 4.963833e+04 -3.819961e+04 -2.221392e+02 -3.169708e+04 0.000000e+00  0.000000e+00 
6.966440e-01 -8.531428e-17 5.186322e-01 65 1  6.904450e-06 5.519728e+04 -4.424661e+04 -5.353792e+02 -3.299531e+04 0.000000e+00  0.000000e+00 
7.256212e-01 -8.886296e-17 4.772485e-01 65 1  3.795161e-06 5.645402e+04 -4.720167e+04 -3.729755e+02 -3.096643e+04 0.000000e+00  0.000000e+00 
7.521431e-01 -9.211096e-17 4.342500e-01 65 1  2.878580e-06 6.031077e+04 -5.223072e+04 -4.935247e+02 -3.015125e+04 0.000000e+00  0.000000e+00 
7.761199e-01 -9.504728e-17 3.897821e-01 65 1  -2.172187e-05 6.594581e+04 -5.908055e+04 5.623257e+02 -2.929202e+04 0.000000e+00  0.000000e+00 
7.974707e-01 -9.766199e-17 3.439953e-01 65 1  -3.688898e-05 7.159257e+04 -6.579632e+04 5.702626e+02 -2.821375e+04 0.000000e+00  0.000000e+00 
8.161230e-01 -9.994625e-17 2.970445e-01 65 1  -1.608774e-05 7.679357e+04 -7.203408e+04 2.137909e+02 -2.661386e+04 0.000000e+00  0.000000e+00 
8.320139e-01 -1.018923e-16 2.490886e-01 65 1  -8.449784e-06 7.772888e+04 -7.441448e+04 -9.123109e+01 -2.245561e+04 0.000000e+00  0.000000e+00 
8.450895e-01 -1.034936e-16 2.002899e-01 65 1  1.464590e-05 7.106510e+04 -6.918672e+04 -3.931568e+02 -1.622623e+04 0.000000e+00  0.000000e+00 
8.553055e-01 -1.047447e-16 1.508134e-01 65 1  2.461623e-05 7.575276e+04 -7.458215e+04 -2.873398e+02 -1.326273e+04 0.000000e+00  0.000000e+00 
8.626275e-01 -1.056414e-16 1.008267e-01 65 1  -6.313466e-05 7.484606e+04 -7.436215e+04 1.221378e+03 -8.409058e+03 0.000000e+00  0.000000e+00 
8.670306e-01 -1.061806e-16 5.049878e-02 65 1  -9.176384e-05 8.282091e+04 -8.266759e+04 2.767388e+02 -5.029425e+03 0.000000e+00  0.000000e+00 
5.049878e-02 8.670306e-01 0.000000e+00 69 1  -5.511783e-08 3.484127e+02 -2.668362e+01 -3.473848e+02 -1.796179e+00 0.000000e+00  0.000000e+00 
1.008267e-01 8.626275e-01 0.000000e+00 69 1  3.430254e-08 1.255956e+03 -1.581924e+02 -1.245841e+03 -1.680810e+01 0.000000e+00  0.000000e+00 
1.508134e-01 8.553055e-01 0.000000e+00 69 1  1.590730e-07 3.131471e+03 -5.714491e+02 -3.078889e+03 2.130849e-01 0.000000e+00  0.000000e+00 
2.002899e-01 8.450895e-01 0.000000e+00 69 1  8.222252e-08 4.482339e+03 -1.043717e+03 -4.359102e+03 1.590965e+01 0.000000e+00  0.000000e+00 
2.490886e-01 8.320139e-01 0.000000e+00 69 1  -7.154894e-08 6.847716e+03 -1.988632e+03 -6.552599e+03 1.220155e+00 0.000000e+00  0.000000e+00 
2.970445e-01 8.161230e-01 0.000000e+00 69 1  5.291593e-07 9.761505e+03 -3.413558e+03 -9.145177e+03 -1.808907e+01 0.000000e+00  0.000000e+00 
3.439953e-01 7.974707e-01 0.000000e+00 69 1  3.795255e-07 1.237890e+04 -4.934188e+03 -1.135224e+04 -1.325002e+02 0.000000e+00  0.000000e+00 
3.897821e-01 7.761199e-01 0.000000e+00 69 1  -6.329705e-07 1.814618e+04 -8.143775e+03 -1.621559e+04 -1.315037e+02 0.000000e+00  0.000000e+00 
4.342500e-01 7.521431e-01 0.000000e+00 69 1  4.354533e-08 2.230250e+04 -1.117231e+04 -1.930151e+04 1.812718e+02 0.000000e+00  0.000000e+00 
4.772485e-01 7.256212e-01 0.000000e+00 69 1  -5.457349e-07 2.547697e+04 -1.399988e+04 -2.128485e+04 1.851385e+02 0.000000e+00  0.000000e+00 
5.186322e-01 6.966440e-01 0.000000e+00 69 1  -1.122981e-06 2.755278e+04 -1.651085e+04 -2.205624e+04 2.637810e+02 0.000000e+00  0.000000e+00 
5.582610e-01 6.653096e-01 0.000000e+00 69 1  -9.590774e-06 3.558544e+04 -2.286537e+04 -2.726703e+04 8.523370e+01 0.000000e+00  0.000000e+00 
5.960009e-01 6.317240e-01 0.000000e+00 69 1  -1.202052e-05 3.534686e+04 -2.415758e+04 -2.580309e+04 -1.085270e+02 0.000000e+00  0.000000e+00 
6.317240e-01 5.960009e-01 0.000000e+00 69 1  4.193250e-06 4.586259e+04 -3.360205e+04 -3.121296e+04 -1.747080e+02 0.000000e+00  0.000000e+00 
6.653096e-01 5.582610e-01 0.000000e+00 69 1  3.206443e-06 4.981418e+04 -3.812688e+04 -3.205407e+04 -5.747761e+02 0.000000e+00  0.000000e+00 
6.966440e-01 5.186322e-01 0.000000e+00 69 1  3.714713e-06 5.248197e+04 -4.216832e+04 -3.124016e+04 -4.916461e+02 0.000000e+00  0.000000e+00 
7.256212e-01 4.772485e-01 0.000000e+00 69 1  -1.580678e-06 5.477260e+04 -4.580066e+04 -3.003651e+04 -3.819880e+02 0.000000e+00  0.000000e+00 
7.521431e-01 4.342500e-01 0.000000e+00 69 1  -3.067930e-05 6.179577e+04 -5.373247e+04 -3.052107e+04 -5.791855e+01 0.000000e+00  0.000000e+00 
7.761199e-01 3.897821e-01 0.000000e+00 69 1  -2.451096e-05 6.561303e+04 -5.854516e+04 -2.962314e+04 5.905897e+01 0.000000e+00  0.000000e+00 
7.974707e-01 3.439953e-01 0.000000e+00 69 1  2.367407e-05 7.378632e+04 -6.795778e+04 -2.873582e+04 -6.433317e+02 0.000000e+00  0.000000e+00 
8.161230e-01 2.970445e-01 0.000000e+00 69 1  3.119545e-05 7.117495e+04 -6.684712e+04 -2.444046e+04 1.014249e+01 0.000000e+00  0.000000e+00 