VARIABLES="X","Y","Z","faceat","Mesh File ID", "EnergyTransferRate[s=0]", "absMomentumTransferRate[s=0]", "MomentumTransferRateX[s=0]", "MomentumTransferRateY[s=0]", "MomentumTransferRateZ[s=0]", "Surface Aboundance [m^-2][s=0]" , "SourceRate [m^-2 s^-1][s=0]" 
ZONE N=4377, E=8748, DATAPACKING=POINT, ZONETYPE=FETRIANGLE
0.000000e+00 0.000000e+00 0.000000e+00 -1 -1  0.000000e+00 0.000000e+00 0.000000e+00 0.000000e+00 0.000000e+00 0.000000e+00  0.000000e+00 
-8.685000e-01 0.000000e+00 0.000000e+00 60 1  0.000000e+00 0.000000e+00 0.000000e+00 0.000000e+00 0.000000e+00 0.000000e+00  0.000000e+00 
0.000000e+00 8.685000e-01 0.000000e+00 60 1  1.694128e-10 1.167834e+01 -3.161604e-01 -1.167039e+01 -2.927284e-01 0.000000e+00  0.000000e+00 
0.000000e+00 0.000000e+00 8.685000e-01 60 1  1.505290e-11 2.354793e+01 -5.712767e-01 -1.810798e-01 -2.354030e+01 0.000000e+00  0.000000e+00 
-5.318029e-17 -8.685000e-01 0.000000e+00 61 1  -9.165532e-11 3.597960e+01 -1.046438e+00 3.596374e+01 -2.133016e-01 0.000000e+00  0.000000e+00 
8.685000e-01 -1.063606e-16 0.000000e+00 65 1  2.338387e-06 7.916259e+04 -7.916056e+04 4.511949e+02 -3.418729e+02 0.000000e+00  0.000000e+00 
-5.318029e-17 0.000000e+00 -8.685000e-01 71 1  -1.736060e-10 4.417252e+01 -1.179451e+00 1.310969e-01 4.415658e+01 0.000000e+00  0.000000e+00 
-8.670306e-01 5.049878e-02 0.000000e+00 60 1  0.000000e+00 0.000000e+00 0.000000e+00 0.000000e+00 0.000000e+00 0.000000e+00  0.000000e+00 
-8.626275e-01 1.008267e-01 0.000000e+00 60 1  0.000000e+00 0.000000e+00 0.000000e+00 0.000000e+00 0.000000e+00 0.000000e+00  0.000000e+00 
-8.553055e-01 1.508134e-01 0.000000e+00 60 1  0.000000e+00 0.000000e+00 0.000000e+00 0.000000e+00 0.000000e+00 0.000000e+00  0.000000e+00 
-8.450895e-01 2.002899e-01 0.000000e+00 60 1  0.000000e+00 0.000000e+00 0.000000e+00 0.000000e+00 0.000000e+00 0.000000e+00  0.000000e+00 
-8.320139e-01 2.490886e-01 0.000000e+00 60 1  0.000000e+00 0.000000e+00 0.000000e+00 0.000000e+00 0.000000e+00 0.000000e+00  0.000000e+00 
-8.161230e-01 2.970445e-01 0.000000e+00 60 1  0.000000e+00 0.000000e+00 0.000000e+00 0.000000e+00 0.000000e+00 0.000000e+00  0.000000e+00 
-7.974707e-01 3.439953e-01 0.000000e+00 60 1  0.000000e+00 0.000000e+00 0.000000e+00 0.000000e+00 0.000000e+00 0.000000e+00  0.000000e+00 
-7.761199e-01 3.897821e-01 0.000000e+00 60 1  0.000000e+00 0.000000e+00 0.000000e+00 0.000000e+00 0.000000e+00 0.000000e+00  0.000000e+00 
-7.521431e-01 4.342500e-01 0.000000e+00 60 1  0.000000e+00 0.000000e+00 0.000000e+00 0.000000e+00 0.000000e+00 0.000000e+00  0.000000e+00 
-7.256212e-01 4.772485e-01 0.000000e+00 60 1  0.000000e+00 0.000000e+00 0.000000e+00 0.000000e+00 0.000000e+00 0.000000e+00  0.000000e+00 
-6.966440e-01 5.186322e-01 0.000000e+00 60 1  0.000000e+00 0.000000e+00 0.000000e+00 0.000000e+00 0.000000e+00 0.000000e+00  0.000000e+00 
-6.653096e-01 5.582610e-01 0.000000e+00 60 1  0.000000e+00 0.000000e+00 0.000000e+00 0.000000e+00 0.000000e+00 0.000000e+00  0.000000e+00 
-6.317240e-01 5.960009e-01 0.000000e+00 60 1  0.000000e+00 0.000000e+00 0.000000e+00 0.000000e+00 0.000000e+00 0.000000e+00  0.000000e+00 
-5.960009e-01 6.317240e-01 0.000000e+00 60 1  0.000000e+00 0.000000e+00 0.000000e+00 0.000000e+00 0.000000e+00 0.000000e+00  0.000000e+00 
-5.582610e-01 6.653096e-01 0.000000e+00 60 1  0.000000e+00 0.000000e+00 0.000000e+00 0.000000e+00 0.000000e+00 0.000000e+00  0.000000e+00 
-5.186322e-01 6.966440e-01 0.000000e+00 60 1  0.000000e+00 0.000000e+00 0.000000e+00 0.000000e+00 0.000000e+00 0.000000e+00  0.000000e+00 
-4.772485e-01 7.256212e-01 0.000000e+00 60 1  0.000000e+00 0.000000e+00 0.000000e+00 0.000000e+00 0.000000e+00 0.000000e+00  0.000000e+00 
-4.342500e-01 7.521431e-01 0.000000e+00 60 1  0.000000e+00 0.000000e+00 0.000000e+00 0.000000e+00 0.000000e+00 0.000000e+00  0.000000e+00 
-3.897821e-01 7.761199e-01 0.000000e+00 60 1  0.000000e+00 0.000000e+00 0.000000e+00 0.000000e+00 0.000000e+00 0.000000e+00  0.000000e+00 
-3.439953e-01 7.974707e-01 0.000000e+00 60 1  0.000000e+00 0.000000e+00 0.000000e+00 0.000000e+00 0.000000e+00 0.000000e+00  0.000000e+00 
-2.970445e-01 8.161230e-01 0.000000e+00 60 1  0.000000e+00 0.000000e+00 0.000000e+00 0.000000e+00 0.000000e+00 0.000000e+00  0.000000e+00 
-2.490886e-01 8.320139e-01 0.000000e+00 60 1  0.000000e+00 0.000000e+00 0.000000e+00 0.000000e+00 0.000000e+00 0.000000e+00  0.000000e+00 
-2.002899e-01 8.450895e-01 0.000000e+00 60 1  0.000000e+00 0.000000e+00 0.000000e+00 0.000000e+00 0.000000e+00 0.000000e+00  0.000000e+00 
-1.508134e-01 8.553055e-01 0.000000e+00 60 1  0.000000e+00 0.000000e+00 0.000000e+00 0.000000e+00 0.000000e+00 0.000000e+00  0.000000e+00 
-1.008267e-01 8.626275e-01 0.000000e+00 60 1  0.000000e+00 0.000000e+00 0.000000e+00 0.000000e+00 0.000000e+00 0.000000e+00  0.000000e+00 
-5.049878e-02 8.670306e-01 0.000000e+00 60 1  0.000000e+00 0.000000e+00 0.000000e+00 0.000000e+00 0.000000e+00 0.000000e+00  0.000000e+00 
-5.049878e-02 0.000000e+00 8.670306e-01 60 1  0.000000e+00 0.000000e+00 0.000000e+00 0.000000e+00 0.000000e+00 0.000000e+00  0.000000e+00 
-1.008267e-01 0.000000e+00 8.626275e-01 60 1  0.000000e+00 0.000000e+00 0.000000e+00 0.000000e+00 0.000000e+00 0.000000e+00  0.000000e+00 
-1.508134e-01 0.000000e+00 8.553055e-01 60 1  0.000000e+00 0.000000e+00 0.000000e+00 0.000000e+00 0.000000e+00 0.000000e+00  0.000000e+00 
-2.002899e-01 0.000000e+00 8.450895e-01 60 1  0.000000e+00 0.000000e+00 0.000000e+00 0.000000e+00 0.000000e+00 0.000000e+00  0.000000e+00 
-2.490886e-01 0.000000e+00 8.320139e-01 60 1  0.000000e+00 0.000000e+00 0.000000e+00 0.000000e+00 0.000000e+00 0.000000e+00  0.000000e+00 
-2.970445e-01 0.000000e+00 8.161230e-01 60 1  0.000000e+00 0.000000e+00 0.000000e+00 0.000000e+00 0.000000e+00 0.000000e+00  0.000000e+00 
-3.439953e-01 0.000000e+00 7.974707e-01 60 1  0.000000e+00 0.000000e+00 0.000000e+00 0.000000e+00 0.000000e+00 0.000000e+00  0.000000e+00 
-3.897821e-01 0.000000e+00 7.761199e-01 60 1  0.000000e+00 0.000000e+00 0.000000e+00 0.000000e+00 0.000000e+00 0.000000e+00  0.000000e+00 
-4.342500e-01 0.000000e+00 7.521431e-01 60 1  0.000000e+00 0.000000e+00 0.000000e+00 0.000000e+00 0.000000e+00 0.000000e+00  0.000000e+00 
-4.772485e-01 0.000000e+00 7.256212e-01 60 1  0.000000e+00 0.000000e+00 0.000000e+00 0.000000e+00 0.000000e+00 0.000000e+00  0.000000e+00 
-5.186322e-01 0.000000e+00 6.966440e-01 60 1  0.000000e+00 0.000000e+00 0.000000e+00 0.000000e+00 0.000000e+00 0.000000e+00  0.000000e+00 
-5.582610e-01 0.000000e+00 6.653096e-01 60 1  0.000000e+00 0.000000e+00 0.000000e+00 0.000000e+00 0.000000e+00 0.000000e+00  0.000000e+00 
-5.960009e-01 0.000000e+00 6.317240e-01 60 1  0.000000e+00 0.000000e+00 0.000000e+00 0.000000e+00 0.000000e+00 0.000000e+00  0.000000e+00 
-6.317240e-01 0.000000e+00 5.960009e-01 60 1  0.000000e+00 0.000000e+00 0.000000e+00 0.000000e+00 0.000000e+00 0.000000e+00  0.000000e+00 
-6.653096e-01 0.000000e+00 5.582610e-01 60 1  0.000000e+00 0.000000e+00 0.000000e+00 0.000000e+00 0.000000e+00 0.000000e+00  0.000000e+00 
-6.966440e-01 0.000000e+00 5.186322e-01 60 1  0.000000e+00 0.000000e+00 0.000000e+00 0.000000e+00 0.000000e+00 0.000000e+00  0.000000e+00 
-7.256212e-01 0.000000e+00 4.772485e-01 60 1  0.000000e+00 0.000000e+00 0.000000e+00 0.000000e+00 0.000000e+00 0.000000e+00  0.000000e+00 
-7.521431e-01 0.000000e+00 4.342500e-01 60 1  0.000000e+00 0.000000e+00 0.000000e+00 0.000000e+00 0.000000e+00 0.000000e+00  0.000000e+00 
-7.761199e-01 0.000000e+00 3.897821e-01 60 1  0.000000e+00 0.000000e+00 0.000000e+00 0.000000e+00 0.000000e+00 0.000000e+00  0.000000e+00 
-7.974707e-01 0.000000e+00 3.439953e-01 60 1  0.000000e+00 0.000000e+00 0.000000e+00 0.000000e+00 0.000000e+00 0.000000e+00  0.000000e+00 
-8.161230e-01 0.000000e+00 2.970445e-01 60 1  0.000000e+00 0.000000e+00 0.000000e+00 0.000000e+00 0.000000e+00 0.000000e+00  0.000000e+00 
-8.320139e-01 0.000000e+00 2.490886e-01 60 1  0.000000e+00 0.000000e+00 0.000000e+00 0.000000e+00 0.000000e+00 0.000000e+00  0.000000e+00 
-8.450895e-01 0.000000e+00 2.002899e-01 60 1  0.000000e+00 0.000000e+00 0.000000e+00 0.000000e+00 0.000000e+00 0.000000e+00  0.000000e+00 
-8.553055e-01 0.000000e+00 1.508134e-01 60 1  0.000000e+00 0.000000e+00 0.000000e+00 0.000000e+00 0.000000e+00 0.000000e+00  0.000000e+00 
-8.626275e-01 0.000000e+00 1.008267e-01 60 1  0.000000e+00 0.000000e+00 0.000000e+00 0.000000e+00 0.000000e+00 0.000000e+00  0.000000e+00 
-8.670306e-01 0.000000e+00 5.049878e-02 60 1  0.000000e+00 0.000000e+00 0.000000e+00 0.000000e+00 0.000000e+00 0.000000e+00  0.000000e+00 
0.000000e+00 5.049878e-02 8.670306e-01 60 1  -4.744096e-10 2.588434e+01 -4.152361e-01 -1.560657e+00 -2.583391e+01 0.000000e+00  0.000000e+00 
0.000000e+00 1.008267e-01 8.626275e-01 60 1  -3.747777e-11 1.210213e+01 -1.622688e-01 -1.408750e+00 -1.201876e+01 0.000000e+00  0.000000e+00 
0.000000e+00 1.508134e-01 8.553055e-01 60 1  -3.550153e-10 4.773353e+01 -1.434416e+00 -8.340289e+00 -4.697735e+01 0.000000e+00  0.000000e+00 
0.000000e+00 2.002899e-01 8.450895e-01 60 1  -1.162647e-10 2.062371e+01 -3.800432e-01 -4.624062e+00 -2.009505e+01 0.000000e+00  0.000000e+00 
0.000000e+00 2.490886e-01 8.320139e-01 60 1  -5.482437e-11 3.388096e+01 -1.068083e+00 -9.732542e+00 -3.243541e+01 0.000000e+00  0.000000e+00 
0.000000e+00 2.970445e-01 8.161230e-01 60 1  3.043282e-10 2.903333e+01 -1.062514e+00 -1.042071e+01 -2.707792e+01 0.000000e+00  0.000000e+00 
0.000000e+00 3.439953e-01 7.974707e-01 60 1  1.370622e-10 1.235612e+01 -4.018156e-01 -4.771468e+00 -1.139058e+01 0.000000e+00  0.000000e+00 
0.000000e+00 3.897821e-01 7.761199e-01 60 1  -2.093160e-10 2.395607e+01 -3.756070e-01 -1.113289e+01 -2.120875e+01 0.000000e+00  0.000000e+00 
0.000000e+00 4.342500e-01 7.521431e-01 60 1  2.015110e-09 8.044135e+01 -2.493284e+00 -4.079931e+01 -6.928211e+01 0.000000e+00  0.000000e+00 
0.000000e+00 4.772485e-01 7.256212e-01 60 1  3.362809e-09 4.482110e+01 -1.173620e+00 -2.473234e+01 -3.736128e+01 0.000000e+00  0.000000e+00 
0.000000e+00 5.186322e-01 6.966440e-01 60 1  6.201862e-10 4.998677e+01 -1.675539e+00 -2.923137e+01 -4.051416e+01 0.000000e+00  0.000000e+00 
0.000000e+00 5.582610e-01 6.653096e-01 60 1  1.133647e-09 3.197130e+01 -1.011717e+00 -2.062583e+01 -2.440729e+01 0.000000e+00  0.000000e+00 
0.000000e+00 5.960009e-01 6.317240e-01 60 1  3.792410e-10 3.902929e+01 -1.144607e+00 -2.674137e+01 -2.840554e+01 0.000000e+00  0.000000e+00 
0.000000e+00 6.317240e-01 5.960009e-01 60 1  -4.424024e-11 3.462963e+01 -6.578109e-01 -2.552235e+01 -2.339633e+01 0.000000e+00  0.000000e+00 
0.000000e+00 6.653096e-01 5.582610e-01 60 1  1.078282e-09 4.977274e+01 -1.178532e+00 -3.778614e+01 -3.237507e+01 0.000000e+00  0.000000e+00 
0.000000e+00 6.966440e-01 5.186322e-01 60 1  -1.044809e-10 1.469119e+01 -3.810318e-01 -1.190530e+01 -8.599410e+00 0.000000e+00  0.000000e+00 
0.000000e+00 7.256212e-01 4.772485e-01 60 1  4.623786e-10 2.464934e+01 -7.117506e-01 -2.065271e+01 -1.343686e+01 0.000000e+00  0.000000e+00 
0.000000e+00 7.521431e-01 4.342500e-01 60 1  1.217443e-10 3.018590e+00 -7.553392e-02 -2.656135e+00 -1.432175e+00 0.000000e+00  0.000000e+00 
0.000000e+00 7.761199e-01 3.897821e-01 60 1  -5.624841e-10 3.281326e+01 -1.151136e+00 -2.904304e+01 -1.522783e+01 0.000000e+00  0.000000e+00 
0.000000e+00 7.974707e-01 3.439953e-01 60 1  -1.675798e-11 2.940418e+01 -8.248095e-01 -2.713864e+01 -1.128803e+01 0.000000e+00  0.000000e+00 
0.000000e+00 8.161230e-01 2.970445e-01 60 1  -1.367876e-10 5.235145e+01 -1.373080e+00 -4.905969e+01 -1.821910e+01 0.000000e+00  0.000000e+00 
0.000000e+00 8.320139e-01 2.490886e-01 60 1  -6.087118e-10 3.243154e+01 -9.006888e-01 -3.100732e+01 -9.462539e+00 0.000000e+00  0.000000e+00 
0.000000e+00 8.450895e-01 2.002899e-01 60 1  -2.144791e-11 1.798943e+01 -4.509733e-01 -1.745515e+01 -4.328269e+00 0.000000e+00  0.000000e+00 
0.000000e+00 8.553055e-01 1.508134e-01 60 1  -2.004907e-10 1.450222e+01 -3.726652e-01 -1.425218e+01 -2.655362e+00 0.000000e+00  0.000000e+00 
0.000000e+00 8.626275e-01 1.008267e-01 60 1  -4.920025e-10 4.243981e+01 -1.374629e+00 -4.215610e+01 -4.702297e+00 0.000000e+00  0.000000e+00 
0.000000e+00 8.670306e-01 5.049878e-02 60 1  -7.118449e-10 2.403021e+01 -5.913528e-01 -2.395712e+01 -1.777018e+00 0.000000e+00  0.000000e+00 
-5.049878e-02 -8.670306e-01 0.000000e+00 61 1  0.000000e+00 0.000000e+00 0.000000e+00 0.000000e+00 0.000000e+00 0.000000e+00  0.000000e+00 
-1.008267e-01 -8.626275e-01 0.000000e+00 61 1  0.000000e+00 0.000000e+00 0.000000e+00 0.000000e+00 0.000000e+00 0.000000e+00  0.000000e+00 
-1.508134e-01 -8.553055e-01 0.000000e+00 61 1  0.000000e+00 0.000000e+00 0.000000e+00 0.000000e+00 0.000000e+00 0.000000e+00  0.000000e+00 
-2.002899e-01 -8.450895e-01 0.000000e+00 61 1  0.000000e+00 0.000000e+00 0.000000e+00 0.000000e+00 0.000000e+00 0.000000e+00  0.000000e+00 
-2.490886e-01 -8.320139e-01 0.000000e+00 61 1  0.000000e+00 0.000000e+00 0.000000e+00 0.000000e+00 0.000000e+00 0.000000e+00  0.000000e+00 
-2.970445e-01 -8.161230e-01 0.000000e+00 61 1  0.000000e+00 0.000000e+00 0.000000e+00 0.000000e+00 0.000000e+00 0.000000e+00  0.000000e+00 
-3.439953e-01 -7.974707e-01 0.000000e+00 61 1  0.000000e+00 0.000000e+00 0.000000e+00 0.000000e+00 0.000000e+00 0.000000e+00  0.000000e+00 
-3.897821e-01 -7.761199e-01 0.000000e+00 61 1  0.000000e+00 0.000000e+00 0.000000e+00 0.000000e+00 0.000000e+00 0.000000e+00  0.000000e+00 
-4.342500e-01 -7.521431e-01 0.000000e+00 61 1  0.000000e+00 0.000000e+00 0.000000e+00 0.000000e+00 0.000000e+00 0.000000e+00  0.000000e+00 
-4.772485e-01 -7.256212e-01 0.000000e+00 61 1  0.000000e+00 0.000000e+00 0.000000e+00 0.000000e+00 0.000000e+00 0.000000e+00  0.000000e+00 
-5.186322e-01 -6.966440e-01 0.000000e+00 61 1  0.000000e+00 0.000000e+00 0.000000e+00 0.000000e+00 0.000000e+00 0.000000e+00  0.000000e+00 
-5.582610e-01 -6.653096e-01 0.000000e+00 61 1  0.000000e+00 0.000000e+00 0.000000e+00 0.000000e+00 0.000000e+00 0.000000e+00  0.000000e+00 
-5.960009e-01 -6.317240e-01 0.000000e+00 61 1  0.000000e+00 0.000000e+00 0.000000e+00 0.000000e+00 0.000000e+00 0.000000e+00  0.000000e+00 
-6.317240e-01 -5.960009e-01 0.000000e+00 61 1  0.000000e+00 0.000000e+00 0.000000e+00 0.000000e+00 0.000000e+00 0.000000e+00  0.000000e+00 
-6.653096e-01 -5.582610e-01 0.000000e+00 61 1  0.000000e+00 0.000000e+00 0.000000e+00 0.000000e+00 0.000000e+00 0.000000e+00  0.000000e+00 
-6.966440e-01 -5.186322e-01 0.000000e+00 61 1  0.000000e+00 0.000000e+00 0.000000e+00 0.000000e+00 0.000000e+00 0.000000e+00  0.000000e+00 
-7.256212e-01 -4.772485e-01 0.000000e+00 61 1  0.000000e+00 0.000000e+00 0.000000e+00 0.000000e+00 0.000000e+00 0.000000e+00  0.000000e+00 
-7.521431e-01 -4.342500e-01 0.000000e+00 61 1  0.000000e+00 0.000000e+00 0.000000e+00 0.000000e+00 0.000000e+00 0.000000e+00  0.000000e+00 
-7.761199e-01 -3.897821e-01 0.000000e+00 61 1  0.000000e+00 0.000000e+00 0.000000e+00 0.000000e+00 0.000000e+00 0.000000e+00  0.000000e+00 
-7.974707e-01 -3.439953e-01 0.000000e+00 61 1  0.000000e+00 0.000000e+00 0.000000e+00 0.000000e+00 0.000000e+00 0.000000e+00  0.000000e+00 
-8.161230e-01 -2.970445e-01 0.000000e+00 61 1  0.000000e+00 0.000000e+00 0.000000e+00 0.000000e+00 0.000000e+00 0.000000e+00  0.000000e+00 
-8.320139e-01 -2.490886e-01 0.000000e+00 61 1  0.000000e+00 0.000000e+00 0.000000e+00 0.000000e+00 0.000000e+00 0.000000e+00  0.000000e+00 
-8.450895e-01 -2.002899e-01 0.000000e+00 61 1  0.000000e+00 0.000000e+00 0.000000e+00 0.000000e+00 0.000000e+00 0.000000e+00  0.000000e+00 
-8.553055e-01 -1.508134e-01 0.000000e+00 61 1  0.000000e+00 0.000000e+00 0.000000e+00 0.000000e+00 0.000000e+00 0.000000e+00  0.000000e+00 
-8.626275e-01 -1.008267e-01 0.000000e+00 61 1  0.000000e+00 0.000000e+00 0.000000e+00 0.000000e+00 0.000000e+00 0.000000e+00  0.000000e+00 
-8.670306e-01 -5.049878e-02 0.000000e+00 61 1  0.000000e+00 0.000000e+00 0.000000e+00 0.000000e+00 0.000000e+00 0.000000e+00  0.000000e+00 
-3.092159e-18 -5.049878e-02 8.670306e-01 61 1  0.000000e+00 0.000000e+00 0.000000e+00 0.000000e+00 0.000000e+00 0.000000e+00  0.000000e+00 
-6.173854e-18 -1.008267e-01 8.626275e-01 61 1  -1.452317e-10 4.545815e+00 -1.183358e-01 5.012526e-01 -4.516545e+00 0.000000e+00  0.000000e+00 
-9.234660e-18 -1.508134e-01 8.553055e-01 61 1  -1.950383e-10 2.993157e+01 -8.089664e-01 5.677697e+00 -2.937700e+01 0.000000e+00  0.000000e+00 
-1.226422e-17 -2.002899e-01 8.450895e-01 61 1  1.468618e-10 4.580790e+01 -1.454115e+00 9.826215e+00 -4.471795e+01 0.000000e+00  0.000000e+00 
-1.525228e-17 -2.490886e-01 8.320139e-01 61 1  -3.362161e-10 2.261009e+01 -6.663331e-01 6.581941e+00 -2.162059e+01 0.000000e+00  0.000000e+00 
-1.818873e-17 -2.970445e-01 8.161230e-01 61 1  -1.319718e-10 4.090110e+01 -1.139918e+00 1.471862e+01 -3.814397e+01 0.000000e+00  0.000000e+00 
-2.106364e-17 -3.439953e-01 7.974707e-01 61 1  6.236906e-10 3.665852e+01 -9.851862e-01 1.415573e+01 -3.380076e+01 0.000000e+00  0.000000e+00 
-2.386727e-17 -3.897821e-01 7.761199e-01 61 1  4.985342e-10 1.613590e+01 -3.372165e-01 7.080765e+00 -1.449539e+01 0.000000e+00  0.000000e+00 
-2.659014e-17 -4.342500e-01 7.521431e-01 61 1  1.127893e-10 2.814604e+01 -9.191671e-01 1.411156e+01 -2.433554e+01 0.000000e+00  0.000000e+00 
-2.922305e-17 -4.772485e-01 7.256212e-01 61 1  4.352125e-10 2.934293e+01 -8.989836e-01 1.612276e+01 -2.450012e+01 0.000000e+00  0.000000e+00 
-3.175707e-17 -5.186322e-01 6.966440e-01 61 1  3.248578e-10 3.792907e+01 -1.214527e+00 2.293060e+01 -3.018820e+01 0.000000e+00  0.000000e+00 
-3.418363e-17 -5.582610e-01 6.653096e-01 61 1  7.435621e-11 1.333605e+01 -3.842520e-01 8.268055e+00 -1.045666e+01 0.000000e+00  0.000000e+00 
-3.649453e-17 -5.960009e-01 6.317240e-01 61 1  -1.322079e-10 3.074167e+01 -1.121992e+00 2.105392e+01 -2.237239e+01 0.000000e+00  0.000000e+00 
-3.868194e-17 -6.317240e-01 5.960009e-01 61 1  -7.730403e-10 1.952376e+01 -4.773717e-01 1.441097e+01 -1.316333e+01 0.000000e+00  0.000000e+00 
-4.073846e-17 -6.653096e-01 5.582610e-01 61 1  -1.326251e-09 3.924240e+01 -7.273637e-01 3.012946e+01 -2.513269e+01 0.000000e+00  0.000000e+00 
-4.265714e-17 -6.966440e-01 5.186322e-01 61 1  1.304612e-09 5.641718e+01 -1.436614e+00 4.511232e+01 -3.384839e+01 0.000000e+00  0.000000e+00 
-4.443148e-17 -7.256212e-01 4.772485e-01 61 1  0.000000e+00 0.000000e+00 0.000000e+00 0.000000e+00 0.000000e+00 0.000000e+00  0.000000e+00 
-4.605548e-17 -7.521431e-01 4.342500e-01 61 1  3.936667e-10 4.580019e+01 -1.601559e+00 3.976771e+01 -2.266322e+01 0.000000e+00  0.000000e+00 
-4.752364e-17 -7.761199e-01 3.897821e-01 61 1  -2.676254e-10 5.834534e+01 -1.774711e+00 5.211257e+01 -2.617841e+01 0.000000e+00  0.000000e+00 
-4.883100e-17 -7.974707e-01 3.439953e-01 61 1  -2.708085e-10 3.924406e+01 -9.392919e-01 3.600599e+01 -1.558147e+01 0.000000e+00  0.000000e+00 
-4.997312e-17 -8.161230e-01 2.970445e-01 61 1  2.740069e-10 3.336893e+01 -1.059261e+00 3.137857e+01 -1.130258e+01 0.000000e+00  0.000000e+00 
-5.094616e-17 -8.320139e-01 2.490886e-01 61 1  8.062222e-10 3.912194e+01 -1.499629e+00 3.742024e+01 -1.131382e+01 0.000000e+00  0.000000e+00 
-5.174681e-17 -8.450895e-01 2.002899e-01 61 1  1.871804e-10 3.279764e+01 -1.116134e+00 3.202048e+01 -7.009149e+00 0.000000e+00  0.000000e+00 
-5.237236e-17 -8.553055e-01 1.508134e-01 61 1  1.471832e-10 1.232360e+01 -2.314865e-01 1.216129e+01 -1.980045e+00 0.000000e+00  0.000000e+00 
-5.282070e-17 -8.626275e-01 1.008267e-01 61 1  3.017741e-10 6.325612e+00 3.699893e-02 6.286083e+00 -7.050933e-01 0.000000e+00  0.000000e+00 
-5.309031e-17 -8.670306e-01 5.049878e-02 61 1  2.107931e-10 1.656210e+01 -3.472437e-01 1.651846e+01 -1.150191e+00 0.000000e+00  0.000000e+00 
8.670306e-01 -5.049878e-02 0.000000e+00 65 1  3.352999e-05 7.741017e+04 -7.726918e+04 4.576524e+03 -9.297916e+02 0.000000e+00  0.000000e+00 
8.626275e-01 -1.008267e-01 0.000000e+00 65 1  -3.285890e-06 7.703497e+04 -7.649126e+04 9.116649e+03 -6.004368e+02 0.000000e+00  0.000000e+00 
8.553055e-01 -1.508134e-01 0.000000e+00 65 1  -9.687897e-06 8.149559e+04 -8.022711e+04 1.432272e+04 3.845966e+01 0.000000e+00  0.000000e+00 
8.450895e-01 -2.002899e-01 0.000000e+00 65 1  -2.257677e-05 8.322700e+04 -8.106335e+04 1.885382e+04 -3.506983e+01 0.000000e+00  0.000000e+00 
8.320139e-01 -2.490886e-01 0.000000e+00 65 1  -3.144031e-05 7.565385e+04 -7.242019e+04 2.187510e+04 5.482862e+02 0.000000e+00  0.000000e+00 
8.161230e-01 -2.970445e-01 0.000000e+00 65 1  -7.866096e-06 7.150118e+04 -6.726051e+04 2.425784e+04 -5.742965e+00 0.000000e+00  0.000000e+00 
7.974707e-01 -3.439953e-01 0.000000e+00 65 1  -4.259347e-06 6.658383e+04 -6.113750e+04 2.636717e+04 -6.204563e+02 0.000000e+00  0.000000e+00 
7.761199e-01 -3.897821e-01 0.000000e+00 65 1  -3.949916e-05 6.426399e+04 -5.727069e+04 2.915099e+04 -3.848525e+02 0.000000e+00  0.000000e+00 
7.521431e-01 -4.342500e-01 0.000000e+00 65 1  -1.121512e-05 5.975524e+04 -5.181103e+04 2.976905e+04 3.299157e+02 0.000000e+00  0.000000e+00 
7.256212e-01 -4.772485e-01 0.000000e+00 65 1  -9.305433e-06 5.425404e+04 -4.551104e+04 2.953159e+04 -3.626848e+02 0.000000e+00  0.000000e+00 
6.966440e-01 -5.186322e-01 0.000000e+00 65 1  -1.954834e-05 5.083526e+04 -4.071337e+04 3.044010e+04 -2.120749e+02 0.000000e+00  0.000000e+00 
6.653096e-01 -5.582610e-01 0.000000e+00 65 1  -4.370178e-05 5.078132e+04 -3.905205e+04 3.245986e+04 -1.919272e+02 0.000000e+00  0.000000e+00 
6.317240e-01 -5.960009e-01 0.000000e+00 65 1  3.248463e-07 5.158311e+04 -3.752731e+04 3.539083e+04 -8.762821e+01 0.000000e+00  0.000000e+00 
5.960009e-01 -6.317240e-01 0.000000e+00 65 1  -4.862192e-06 4.352326e+04 -3.001638e+04 3.151543e+04 -2.605885e+02 0.000000e+00  0.000000e+00 
5.582610e-01 -6.653096e-01 0.000000e+00 65 1  -3.318419e-06 3.364173e+04 -2.151334e+04 2.586215e+04 -3.027272e+02 0.000000e+00  0.000000e+00 
5.186322e-01 -6.966440e-01 0.000000e+00 65 1  2.890855e-06 3.141127e+04 -1.881086e+04 2.515589e+04 -2.829236e+01 0.000000e+00  0.000000e+00 
4.772485e-01 -7.256212e-01 0.000000e+00 65 1  8.226208e-07 2.516770e+04 -1.388434e+04 2.099081e+04 1.537878e+02 0.000000e+00  0.000000e+00 
4.342500e-01 -7.521431e-01 0.000000e+00 65 1  5.585819e-07 2.003826e+04 -1.013495e+04 1.728538e+04 -1.740855e+02 0.000000e+00  0.000000e+00 
3.897821e-01 -7.761199e-01 0.000000e+00 65 1  -5.711884e-07 1.662635e+04 -7.498181e+03 1.483955e+04 -1.955822e+01 0.000000e+00  0.000000e+00 
3.439953e-01 -7.974707e-01 0.000000e+00 65 1  -2.687720e-07 1.266504e+04 -4.992145e+03 1.163966e+04 -1.581114e+00 0.000000e+00  0.000000e+00 
2.970445e-01 -8.161230e-01 0.000000e+00 65 1  -1.017149e-06 9.608852e+03 -3.355412e+03 9.003946e+03 1.436757e+01 0.000000e+00  0.000000e+00 
2.490886e-01 -8.320139e-01 0.000000e+00 65 1  -1.001476e-06 7.050042e+03 -2.016410e+03 6.755338e+03 -5.078985e+01 0.000000e+00  0.000000e+00 
2.002899e-01 -8.450895e-01 0.000000e+00 65 1  3.819679e-07 4.361320e+03 -1.008929e+03 4.242992e+03 1.383922e+01 0.000000e+00  0.000000e+00 
1.508134e-01 -8.553055e-01 0.000000e+00 65 1  1.543682e-07 2.599247e+03 -4.666190e+02 2.556921e+03 2.243015e+01 0.000000e+00  0.000000e+00 
1.008267e-01 -8.626275e-01 0.000000e+00 65 1  -5.246957e-08 1.178639e+03 -1.528912e+02 1.168566e+03 -1.632708e+01 0.000000e+00  0.000000e+00 
5.049878e-02 -8.670306e-01 0.000000e+00 65 1  -3.287343e-08 2.871232e+02 -1.955812e+01 2.864545e+02 -1.000383e+00 0.000000e+00  0.000000e+00 
5.049878e-02 -6.184317e-18 8.670306e-01 65 1  -1.179085e-08 2.349137e+02 -1.655929e+01 -3.805088e-01 -2.343290e+02 0.000000e+00  0.000000e+00 
1.008267e-01 -1.234771e-17 8.626275e-01 65 1  -3.963843e-08 1.047139e+03 -1.339721e+02 2.373249e+00 -1.038531e+03 0.000000e+00  0.000000e+00 
1.508134e-01 -1.846932e-17 8.553055e-01 65 1  -1.452419e-07 2.290341e+03 -4.129244e+02 -9.855229e+00 -2.252789e+03 0.000000e+00  0.000000e+00 
2.002899e-01 -2.452844e-17 8.450895e-01 65 1  2.768643e-07 3.973598e+03 -9.423991e+02 2.628120e+01 -3.860139e+03 0.000000e+00  0.000000e+00 
2.490886e-01 -3.050456e-17 8.320139e-01 65 1  1.635390e-08 6.434680e+03 -1.882551e+03 -3.264518e+01 -6.153051e+03 0.000000e+00  0.000000e+00 
2.970445e-01 -3.637746e-17 8.161230e-01 65 1  -4.927309e-07 1.013093e+04 -3.523149e+03 -2.789441e+01 -9.498544e+03 0.000000e+00  0.000000e+00 
3.439953e-01 -4.212727e-17 7.974707e-01 65 1  -3.914007e-06 1.406331e+04 -5.537151e+03 8.306218e+01 -1.292709e+04 0.000000e+00  0.000000e+00 
3.897821e-01 -4.773454e-17 7.761199e-01 65 1  -3.734732e-06 1.801927e+04 -8.186053e+03 9.169247e+01 -1.605223e+04 0.000000e+00  0.000000e+00 
4.342500e-01 -5.318029e-17 7.521431e-01 65 1  4.968338e-07 2.062658e+04 -1.019017e+04 8.771750e+01 -1.793344e+04 0.000000e+00  0.000000e+00 
4.772485e-01 -5.844609e-17 7.256212e-01 65 1  4.992393e-07 2.551213e+04 -1.413304e+04 6.931342e+01 -2.123961e+04 0.000000e+00  0.000000e+00 
5.186322e-01 -6.351413e-17 6.966440e-01 65 1  1.581887e-06 2.976568e+04 -1.764428e+04 1.348840e+02 -2.397201e+04 0.000000e+00  0.000000e+00 
5.582610e-01 -6.836726e-17 6.653096e-01 65 1  1.185998e-06 3.299673e+04 -2.134304e+04 4.942036e+02 -2.515978e+04 0.000000e+00  0.000000e+00 
5.960009e-01 -7.298906e-17 6.317240e-01 65 1  3.542180e-06 4.144728e+04 -2.832682e+04 1.285652e+02 -3.025643e+04 0.000000e+00  0.000000e+00 
6.317240e-01 -7.736388e-17 5.960009e-01 65 1  -5.898984e-07 4.229267e+04 -3.081466e+04 1.340720e+02 -2.896738e+04 0.000000e+00  0.000000e+00 
6.653096e-01 -8.147693e-17 5.582610e-01 65 1  3.332103e-06 4.356013e+04 -3.352196e+04 -1.607132e+02 -2.781613e+04 0.000000e+00  0.000000e+00 
6.966440e-01 -8.531428e-17 5.186322e-01 65 1  8.743469e-06 4.960633e+04 -3.977664e+04 -5.530737e+02 -2.963614e+04 0.000000e+00  0.000000e+00 
7.256212e-01 -8.886296e-17 4.772485e-01 65 1  5.593778e-06 5.644206e+04 -4.722549e+04 -2.965207e+02 -3.090909e+04 0.000000e+00  0.000000e+00 
7.521431e-01 -9.211096e-17 4.342500e-01 65 1  5.259963e-06 6.204185e+04 -5.369959e+04 -3.911400e+02 -3.107076e+04 0.000000e+00  0.000000e+00 
7.761199e-01 -9.504728e-17 3.897821e-01 65 1  -3.200888e-05 6.578655e+04 -5.891717e+04 6.045249e+02 -2.926212e+04 0.000000e+00  0.000000e+00 
7.974707e-01 -9.766199e-17 3.439953e-01 65 1  -3.830352e-05 6.525517e+04 -5.996799e+04 4.463427e+02 -2.572698e+04 0.000000e+00  0.000000e+00 
8.161230e-01 -9.994625e-17 2.970445e-01 65 1  -1.186960e-05 6.904298e+04 -6.475010e+04 3.474160e+02 -2.396324e+04 0.000000e+00  0.000000e+00 
8.320139e-01 -1.018923e-16 2.490886e-01 65 1  -8.478297e-06 7.381185e+04 -7.071452e+04 2.550556e+02 -2.115610e+04 0.000000e+00  0.000000e+00 
8.450895e-01 -1.034936e-16 2.002899e-01 65 1  1.816219e-05 7.372991e+04 -7.178539e+04 -5.474411e+02 -1.681245e+04 0.000000e+00  0.000000e+00 
8.553055e-01 -1.047447e-16 1.508134e-01 65 1  3.153999e-05 7.081434e+04 -6.971228e+04 -3.401958e+02 -1.244001e+04 0.000000e+00  0.000000e+00 
8.626275e-01 -1.056414e-16 1.008267e-01 65 1  -5.694005e-05 7.816753e+04 -7.764589e+04 1.185117e+03 -8.937230e+03 0.000000e+00  0.000000e+00 
8.670306e-01 -1.061806e-16 5.049878e-02 65 1  -8.029725e-05 7.897700e+04 -7.883897e+04 1.416651e+02 -4.664946e+03 0.000000e+00  0.000000e+00 
5.049878e-02 8.670306e-01 0.000000e+00 69 1  -7.435226e-08 3.300914e+02 -2.589100e+01 -3.290459e+02 -4.328790e+00 0.000000e+00  0.000000e+00 
1.008267e-01 8.626275e-01 0.000000e+00 69 1  3.512393e-08 1.346680e+03 -1.739871e+02 -1.335308e+03 -1.509721e+01 0.000000e+00  0.000000e+00 
1.508134e-01 8.553055e-01 0.000000e+00 69 1  -2.062048e-07 2.388295e+03 -4.264463e+02 -2.349913e+03 2.746619e+00 0.000000e+00  0.000000e+00 
2.002899e-01 8.450895e-01 0.000000e+00 69 1  -2.194688e-07 4.230172e+03 -9.866679e+02 -4.113432e+03 2.269640e+01 0.000000e+00  0.000000e+00 
2.490886e-01 8.320139e-01 0.000000e+00 69 1  -5.261182e-07 5.689131e+03 -1.644656e+03 -5.446218e+03 -5.512588e+00 0.000000e+00  0.000000e+00 
2.970445e-01 8.161230e-01 0.000000e+00 69 1  3.459286e-07 9.205679e+03 -3.237334e+03 -8.617553e+03 -4.444420e+01 0.000000e+00  0.000000e+00 
3.439953e-01 7.974707e-01 0.000000e+00 69 1  4.775551e-07 1.204323e+04 -4.775264e+03 -1.105544e+04 -1.164344e+02 0.000000e+00  0.000000e+00 
3.897821e-01 7.761199e-01 0.000000e+00 69 1  -2.423742e-07 1.482681e+04 -6.629178e+03 -1.326157e+04 -1.386144e+02 0.000000e+00  0.000000e+00 
4.342500e-01 7.521431e-01 0.000000e+00 69 1  1.816046e-06 2.092936e+04 -1.053191e+04 -1.808599e+04 1.171735e+02 0.000000e+00  0.000000e+00 
4.772485e-01 7.256212e-01 0.000000e+00 69 1  -7.867199e-07 2.504111e+04 -1.378735e+04 -2.090372e+04 1.981227e+01 0.000000e+00  0.000000e+00 
5.186322e-01 6.966440e-01 0.000000e+00 69 1  -1.321209e-06 3.009733e+04 -1.800509e+04 -2.411628e+04 2.667894e+02 0.000000e+00  0.000000e+00 
5.582610e-01 6.653096e-01 0.000000e+00 69 1  -9.645133e-06 3.070461e+04 -1.964596e+04 -2.359651e+04 1.191299e+02 0.000000e+00  0.000000e+00 
5.960009e-01 6.317240e-01 0.000000e+00 69 1  -1.007273e-05 3.486232e+04 -2.393291e+04 -2.534936e+04 -8.498444e+01 0.000000e+00  0.000000e+00 
6.317240e-01 5.960009e-01 0.000000e+00 69 1  5.097437e-06 4.481961e+04 -3.279312e+04 -3.055162e+04 -8.285169e+01 0.000000e+00  0.000000e+00 
6.653096e-01 5.582610e-01 0.000000e+00 69 1  1.197582e-06 5.000178e+04 -3.830925e+04 -3.212992e+04 -4.972270e+02 0.000000e+00  0.000000e+00 
6.966440e-01 5.186322e-01 0.000000e+00 69 1  2.912771e-06 5.550391e+04 -4.459182e+04 -3.304653e+04 -4.257885e+02 0.000000e+00  0.000000e+00 
7.256212e-01 4.772485e-01 0.000000e+00 69 1  -3.942260e-07 5.095380e+04 -4.250789e+04 -2.809439e+04 -2.719081e+02 0.000000e+00  0.000000e+00 
7.521431e-01 4.342500e-01 0.000000e+00 69 1  -2.120786e-05 5.957001e+04 -5.189492e+04 -2.924806e+04 -2.343989e+02 0.000000e+00  0.000000e+00 
7.761199e-01 3.897821e-01 0.000000e+00 69 1  -2.251479e-05 6.348935e+04 -5.657009e+04 -2.882225e+04 -3.292553e+00 0.000000e+00  0.000000e+00 
7.974707e-01 3.439953e-01 0.000000e+00 69 1  2.089619e-05 6.439891e+04 -5.932114e+04 -2.506140e+04 -3.856681e+02 0.000000e+00  0.000000e+00 
8.161230e-01 2.970445e-01 0.000000e+00 69 1  2.738820e-05 6.889271e+04 -6.474606e+04 -2.354046e+04 8.633235e+00 0.000000e+00  0.000000e+00 