VARIABLES="X","Y","Z","faceat","Mesh File ID", "EnergyTransferRate[s=0]", "absMomentumTransferRate[s=0]", "MomentumTransferRateX[s=0]", "MomentumTransferRateY[s=0]", "MomentumTransferRateZ[s=0]", "Surface Aboundance [m^-2][s=0]" , "SourceRate [m^-2 s^-1][s=0]" 
ZONE N=4377, E=8748, DATAPACKING=POINT, ZONETYPE=FETRIANGLE
0.000000e+00 0.000000e+00 0.000000e+00 -1 -1  0.000000e+00 0.000000e+00 0.000000e+00 0.000000e+00 0.000000e+00 0.000000e+00  0.000000e+00 
-8.685000e-01 0.000000e+00 0.000000e+00 60 1  0.000000e+00 0.000000e+00 0.000000e+00 0.000000e+00 0.000000e+00 0.000000e+00  0.000000e+00 
0.000000e+00 8.685000e-01 0.000000e+00 60 1  -1.840406e-11 3.163251e+01 -7.618862e-01 -3.161859e+01 -5.475431e-01 0.000000e+00  0.000000e+00 
0.000000e+00 0.000000e+00 8.685000e-01 60 1  -1.922832e-10 4.137276e+01 -1.203315e+00 -4.980601e-02 -4.135522e+01 0.000000e+00  0.000000e+00 
-5.318029e-17 -8.685000e-01 0.000000e+00 61 1  3.654183e-10 2.244837e+01 -5.697906e-01 2.244098e+01 8.549260e-02 0.000000e+00  0.000000e+00 
8.685000e-01 -1.063606e-16 0.000000e+00 65 1  1.073673e-05 7.947170e+04 -7.947071e+04 3.369207e+02 -2.097497e+02 0.000000e+00  0.000000e+00 
-5.318029e-17 0.000000e+00 -8.685000e-01 71 1  -6.951440e-11 6.495006e+01 -1.601701e+00 7.827779e-01 6.492559e+01 0.000000e+00  0.000000e+00 
-8.670306e-01 5.049878e-02 0.000000e+00 60 1  0.000000e+00 0.000000e+00 0.000000e+00 0.000000e+00 0.000000e+00 0.000000e+00  0.000000e+00 
-8.626275e-01 1.008267e-01 0.000000e+00 60 1  0.000000e+00 0.000000e+00 0.000000e+00 0.000000e+00 0.000000e+00 0.000000e+00  0.000000e+00 
-8.553055e-01 1.508134e-01 0.000000e+00 60 1  0.000000e+00 0.000000e+00 0.000000e+00 0.000000e+00 0.000000e+00 0.000000e+00  0.000000e+00 
-8.450895e-01 2.002899e-01 0.000000e+00 60 1  0.000000e+00 0.000000e+00 0.000000e+00 0.000000e+00 0.000000e+00 0.000000e+00  0.000000e+00 
-8.320139e-01 2.490886e-01 0.000000e+00 60 1  0.000000e+00 0.000000e+00 0.000000e+00 0.000000e+00 0.000000e+00 0.000000e+00  0.000000e+00 
-8.161230e-01 2.970445e-01 0.000000e+00 60 1  0.000000e+00 0.000000e+00 0.000000e+00 0.000000e+00 0.000000e+00 0.000000e+00  0.000000e+00 
-7.974707e-01 3.439953e-01 0.000000e+00 60 1  0.000000e+00 0.000000e+00 0.000000e+00 0.000000e+00 0.000000e+00 0.000000e+00  0.000000e+00 
-7.761199e-01 3.897821e-01 0.000000e+00 60 1  0.000000e+00 0.000000e+00 0.000000e+00 0.000000e+00 0.000000e+00 0.000000e+00  0.000000e+00 
-7.521431e-01 4.342500e-01 0.000000e+00 60 1  0.000000e+00 0.000000e+00 0.000000e+00 0.000000e+00 0.000000e+00 0.000000e+00  0.000000e+00 
-7.256212e-01 4.772485e-01 0.000000e+00 60 1  0.000000e+00 0.000000e+00 0.000000e+00 0.000000e+00 0.000000e+00 0.000000e+00  0.000000e+00 
-6.966440e-01 5.186322e-01 0.000000e+00 60 1  0.000000e+00 0.000000e+00 0.000000e+00 0.000000e+00 0.000000e+00 0.000000e+00  0.000000e+00 
-6.653096e-01 5.582610e-01 0.000000e+00 60 1  0.000000e+00 0.000000e+00 0.000000e+00 0.000000e+00 0.000000e+00 0.000000e+00  0.000000e+00 
-6.317240e-01 5.960009e-01 0.000000e+00 60 1  0.000000e+00 0.000000e+00 0.000000e+00 0.000000e+00 0.000000e+00 0.000000e+00  0.000000e+00 
-5.960009e-01 6.317240e-01 0.000000e+00 60 1  0.000000e+00 0.000000e+00 0.000000e+00 0.000000e+00 0.000000e+00 0.000000e+00  0.000000e+00 
-5.582610e-01 6.653096e-01 0.000000e+00 60 1  0.000000e+00 0.000000e+00 0.000000e+00 0.000000e+00 0.000000e+00 0.000000e+00  0.000000e+00 
-5.186322e-01 6.966440e-01 0.000000e+00 60 1  0.000000e+00 0.000000e+00 0.000000e+00 0.000000e+00 0.000000e+00 0.000000e+00  0.000000e+00 
-4.772485e-01 7.256212e-01 0.000000e+00 60 1  0.000000e+00 0.000000e+00 0.000000e+00 0.000000e+00 0.000000e+00 0.000000e+00  0.000000e+00 
-4.342500e-01 7.521431e-01 0.000000e+00 60 1  0.000000e+00 0.000000e+00 0.000000e+00 0.000000e+00 0.000000e+00 0.000000e+00  0.000000e+00 
-3.897821e-01 7.761199e-01 0.000000e+00 60 1  0.000000e+00 0.000000e+00 0.000000e+00 0.000000e+00 0.000000e+00 0.000000e+00  0.000000e+00 
-3.439953e-01 7.974707e-01 0.000000e+00 60 1  0.000000e+00 0.000000e+00 0.000000e+00 0.000000e+00 0.000000e+00 0.000000e+00  0.000000e+00 
-2.970445e-01 8.161230e-01 0.000000e+00 60 1  0.000000e+00 0.000000e+00 0.000000e+00 0.000000e+00 0.000000e+00 0.000000e+00  0.000000e+00 
-2.490886e-01 8.320139e-01 0.000000e+00 60 1  0.000000e+00 0.000000e+00 0.000000e+00 0.000000e+00 0.000000e+00 0.000000e+00  0.000000e+00 
-2.002899e-01 8.450895e-01 0.000000e+00 60 1  0.000000e+00 0.000000e+00 0.000000e+00 0.000000e+00 0.000000e+00 0.000000e+00  0.000000e+00 
-1.508134e-01 8.553055e-01 0.000000e+00 60 1  0.000000e+00 0.000000e+00 0.000000e+00 0.000000e+00 0.000000e+00 0.000000e+00  0.000000e+00 
-1.008267e-01 8.626275e-01 0.000000e+00 60 1  0.000000e+00 0.000000e+00 0.000000e+00 0.000000e+00 0.000000e+00 0.000000e+00  0.000000e+00 
-5.049878e-02 8.670306e-01 0.000000e+00 60 1  0.000000e+00 0.000000e+00 0.000000e+00 0.000000e+00 0.000000e+00 0.000000e+00  0.000000e+00 
-5.049878e-02 0.000000e+00 8.670306e-01 60 1  0.000000e+00 0.000000e+00 0.000000e+00 0.000000e+00 0.000000e+00 0.000000e+00  0.000000e+00 
-1.008267e-01 0.000000e+00 8.626275e-01 60 1  0.000000e+00 0.000000e+00 0.000000e+00 0.000000e+00 0.000000e+00 0.000000e+00  0.000000e+00 
-1.508134e-01 0.000000e+00 8.553055e-01 60 1  0.000000e+00 0.000000e+00 0.000000e+00 0.000000e+00 0.000000e+00 0.000000e+00  0.000000e+00 
-2.002899e-01 0.000000e+00 8.450895e-01 60 1  0.000000e+00 0.000000e+00 0.000000e+00 0.000000e+00 0.000000e+00 0.000000e+00  0.000000e+00 
-2.490886e-01 0.000000e+00 8.320139e-01 60 1  0.000000e+00 0.000000e+00 0.000000e+00 0.000000e+00 0.000000e+00 0.000000e+00  0.000000e+00 
-2.970445e-01 0.000000e+00 8.161230e-01 60 1  0.000000e+00 0.000000e+00 0.000000e+00 0.000000e+00 0.000000e+00 0.000000e+00  0.000000e+00 
-3.439953e-01 0.000000e+00 7.974707e-01 60 1  0.000000e+00 0.000000e+00 0.000000e+00 0.000000e+00 0.000000e+00 0.000000e+00  0.000000e+00 
-3.897821e-01 0.000000e+00 7.761199e-01 60 1  0.000000e+00 0.000000e+00 0.000000e+00 0.000000e+00 0.000000e+00 0.000000e+00  0.000000e+00 
-4.342500e-01 0.000000e+00 7.521431e-01 60 1  0.000000e+00 0.000000e+00 0.000000e+00 0.000000e+00 0.000000e+00 0.000000e+00  0.000000e+00 
-4.772485e-01 0.000000e+00 7.256212e-01 60 1  0.000000e+00 0.000000e+00 0.000000e+00 0.000000e+00 0.000000e+00 0.000000e+00  0.000000e+00 
-5.186322e-01 0.000000e+00 6.966440e-01 60 1  0.000000e+00 0.000000e+00 0.000000e+00 0.000000e+00 0.000000e+00 0.000000e+00  0.000000e+00 
-5.582610e-01 0.000000e+00 6.653096e-01 60 1  0.000000e+00 0.000000e+00 0.000000e+00 0.000000e+00 0.000000e+00 0.000000e+00  0.000000e+00 
-5.960009e-01 0.000000e+00 6.317240e-01 60 1  0.000000e+00 0.000000e+00 0.000000e+00 0.000000e+00 0.000000e+00 0.000000e+00  0.000000e+00 
-6.317240e-01 0.000000e+00 5.960009e-01 60 1  0.000000e+00 0.000000e+00 0.000000e+00 0.000000e+00 0.000000e+00 0.000000e+00  0.000000e+00 
-6.653096e-01 0.000000e+00 5.582610e-01 60 1  0.000000e+00 0.000000e+00 0.000000e+00 0.000000e+00 0.000000e+00 0.000000e+00  0.000000e+00 
-6.966440e-01 0.000000e+00 5.186322e-01 60 1  0.000000e+00 0.000000e+00 0.000000e+00 0.000000e+00 0.000000e+00 0.000000e+00  0.000000e+00 
-7.256212e-01 0.000000e+00 4.772485e-01 60 1  0.000000e+00 0.000000e+00 0.000000e+00 0.000000e+00 0.000000e+00 0.000000e+00  0.000000e+00 
-7.521431e-01 0.000000e+00 4.342500e-01 60 1  0.000000e+00 0.000000e+00 0.000000e+00 0.000000e+00 0.000000e+00 0.000000e+00  0.000000e+00 
-7.761199e-01 0.000000e+00 3.897821e-01 60 1  0.000000e+00 0.000000e+00 0.000000e+00 0.000000e+00 0.000000e+00 0.000000e+00  0.000000e+00 
-7.974707e-01 0.000000e+00 3.439953e-01 60 1  0.000000e+00 0.000000e+00 0.000000e+00 0.000000e+00 0.000000e+00 0.000000e+00  0.000000e+00 
-8.161230e-01 0.000000e+00 2.970445e-01 60 1  0.000000e+00 0.000000e+00 0.000000e+00 0.000000e+00 0.000000e+00 0.000000e+00  0.000000e+00 
-8.320139e-01 0.000000e+00 2.490886e-01 60 1  0.000000e+00 0.000000e+00 0.000000e+00 0.000000e+00 0.000000e+00 0.000000e+00  0.000000e+00 
-8.450895e-01 0.000000e+00 2.002899e-01 60 1  0.000000e+00 0.000000e+00 0.000000e+00 0.000000e+00 0.000000e+00 0.000000e+00  0.000000e+00 
-8.553055e-01 0.000000e+00 1.508134e-01 60 1  0.000000e+00 0.000000e+00 0.000000e+00 0.000000e+00 0.000000e+00 0.000000e+00  0.000000e+00 
-8.626275e-01 0.000000e+00 1.008267e-01 60 1  0.000000e+00 0.000000e+00 0.000000e+00 0.000000e+00 0.000000e+00 0.000000e+00  0.000000e+00 
-8.670306e-01 0.000000e+00 5.049878e-02 60 1  0.000000e+00 0.000000e+00 0.000000e+00 0.000000e+00 0.000000e+00 0.000000e+00  0.000000e+00 
0.000000e+00 5.049878e-02 8.670306e-01 60 1  2.340261e-10 2.254243e+01 -4.926670e-01 -1.529742e+00 -2.248507e+01 0.000000e+00  0.000000e+00 
0.000000e+00 1.008267e-01 8.626275e-01 60 1  -5.568391e-10 5.710873e+01 -1.394345e+00 -7.072922e+00 -5.665189e+01 0.000000e+00  0.000000e+00 
0.000000e+00 1.508134e-01 8.553055e-01 60 1  -6.891293e-10 6.411556e+01 -1.762554e+00 -1.077694e+01 -6.317876e+01 0.000000e+00  0.000000e+00 
0.000000e+00 2.002899e-01 8.450895e-01 60 1  -4.237349e-10 4.028940e+01 -8.800136e-01 -9.383569e+00 -3.917154e+01 0.000000e+00  0.000000e+00 
0.000000e+00 2.490886e-01 8.320139e-01 60 1  5.012475e-11 3.322475e+01 -9.300006e-01 -9.369360e+00 -3.186274e+01 0.000000e+00  0.000000e+00 
0.000000e+00 2.970445e-01 8.161230e-01 60 1  3.155139e-10 3.642222e+01 -1.268658e+00 -1.316047e+01 -3.393775e+01 0.000000e+00  0.000000e+00 
0.000000e+00 3.439953e-01 7.974707e-01 60 1  1.067747e-10 3.415429e+01 -1.096326e+00 -1.311615e+01 -3.151634e+01 0.000000e+00  0.000000e+00 
0.000000e+00 3.897821e-01 7.761199e-01 60 1  -3.013149e-10 1.511301e+01 -2.441636e-01 -7.009944e+00 -1.338671e+01 0.000000e+00  0.000000e+00 
0.000000e+00 4.342500e-01 7.521431e-01 60 1  -7.471741e-10 7.794913e+01 -2.595964e+00 -4.006725e+01 -6.681275e+01 0.000000e+00  0.000000e+00 
0.000000e+00 4.772485e-01 7.256212e-01 60 1  -1.201359e-10 2.029554e+01 -5.386913e-01 -1.109439e+01 -1.698627e+01 0.000000e+00  0.000000e+00 
0.000000e+00 5.186322e-01 6.966440e-01 60 1  -5.505415e-11 8.498748e+01 -3.140168e+00 -5.016397e+01 -6.853166e+01 0.000000e+00  0.000000e+00 
0.000000e+00 5.582610e-01 6.653096e-01 60 1  7.198400e-11 5.555064e+01 -1.813712e+00 -3.554944e+01 -4.264764e+01 0.000000e+00  0.000000e+00 
0.000000e+00 5.960009e-01 6.317240e-01 60 1  -1.020778e-10 4.434514e+01 -1.196493e+00 -3.052055e+01 -3.214896e+01 0.000000e+00  0.000000e+00 
0.000000e+00 6.317240e-01 5.960009e-01 60 1  -3.746170e-10 3.568528e+01 -8.976635e-01 -2.581231e+01 -2.462434e+01 0.000000e+00  0.000000e+00 
0.000000e+00 6.653096e-01 5.582610e-01 60 1  -1.779272e-12 3.443462e+01 -8.926995e-01 -2.651410e+01 -2.195333e+01 0.000000e+00  0.000000e+00 
0.000000e+00 6.966440e-01 5.186322e-01 60 1  1.397204e-11 4.079883e+01 -1.194897e+00 -3.283191e+01 -2.419054e+01 0.000000e+00  0.000000e+00 
0.000000e+00 7.256212e-01 4.772485e-01 60 1  5.473128e-10 3.273785e+01 -8.586685e-01 -2.755701e+01 -1.765335e+01 0.000000e+00  0.000000e+00 
0.000000e+00 7.521431e-01 4.342500e-01 60 1  1.109243e-10 1.873390e+01 -3.859518e-01 -1.619671e+01 -9.406199e+00 0.000000e+00  0.000000e+00 
0.000000e+00 7.761199e-01 3.897821e-01 60 1  -1.308810e-10 5.067114e+01 -1.637007e+00 -4.506286e+01 -2.311327e+01 0.000000e+00  0.000000e+00 
0.000000e+00 7.974707e-01 3.439953e-01 60 1  1.309687e-10 4.648849e+01 -1.400841e+00 -4.262277e+01 -1.850722e+01 0.000000e+00  0.000000e+00 
0.000000e+00 8.161230e-01 2.970445e-01 60 1  -4.840863e-11 4.883582e+01 -1.524173e+00 -4.565089e+01 -1.728035e+01 0.000000e+00  0.000000e+00 
0.000000e+00 8.320139e-01 2.490886e-01 60 1  1.768561e-11 6.909518e+00 -2.342905e-01 -6.612217e+00 -1.991265e+00 0.000000e+00  0.000000e+00 
0.000000e+00 8.450895e-01 2.002899e-01 60 1  3.981743e-10 2.551890e+01 -6.992351e-01 -2.484267e+01 -5.793677e+00 0.000000e+00  0.000000e+00 
0.000000e+00 8.553055e-01 1.508134e-01 60 1  2.135049e-10 8.958994e+00 -1.671430e-01 -8.789862e+00 -1.724515e+00 0.000000e+00  0.000000e+00 
0.000000e+00 8.626275e-01 1.008267e-01 60 1  -1.718823e-10 1.896274e+01 -5.332362e-01 -1.885820e+01 -1.915616e+00 0.000000e+00  0.000000e+00 
0.000000e+00 8.670306e-01 5.049878e-02 60 1  -3.313593e-10 3.338372e+01 -6.231643e-01 -3.335076e+01 -1.345907e+00 0.000000e+00  0.000000e+00 
-5.049878e-02 -8.670306e-01 0.000000e+00 61 1  0.000000e+00 0.000000e+00 0.000000e+00 0.000000e+00 0.000000e+00 0.000000e+00  0.000000e+00 
-1.008267e-01 -8.626275e-01 0.000000e+00 61 1  0.000000e+00 0.000000e+00 0.000000e+00 0.000000e+00 0.000000e+00 0.000000e+00  0.000000e+00 
-1.508134e-01 -8.553055e-01 0.000000e+00 61 1  0.000000e+00 0.000000e+00 0.000000e+00 0.000000e+00 0.000000e+00 0.000000e+00  0.000000e+00 
-2.002899e-01 -8.450895e-01 0.000000e+00 61 1  0.000000e+00 0.000000e+00 0.000000e+00 0.000000e+00 0.000000e+00 0.000000e+00  0.000000e+00 
-2.490886e-01 -8.320139e-01 0.000000e+00 61 1  0.000000e+00 0.000000e+00 0.000000e+00 0.000000e+00 0.000000e+00 0.000000e+00  0.000000e+00 
-2.970445e-01 -8.161230e-01 0.000000e+00 61 1  0.000000e+00 0.000000e+00 0.000000e+00 0.000000e+00 0.000000e+00 0.000000e+00  0.000000e+00 
-3.439953e-01 -7.974707e-01 0.000000e+00 61 1  0.000000e+00 0.000000e+00 0.000000e+00 0.000000e+00 0.000000e+00 0.000000e+00  0.000000e+00 
-3.897821e-01 -7.761199e-01 0.000000e+00 61 1  0.000000e+00 0.000000e+00 0.000000e+00 0.000000e+00 0.000000e+00 0.000000e+00  0.000000e+00 
-4.342500e-01 -7.521431e-01 0.000000e+00 61 1  0.000000e+00 0.000000e+00 0.000000e+00 0.000000e+00 0.000000e+00 0.000000e+00  0.000000e+00 
-4.772485e-01 -7.256212e-01 0.000000e+00 61 1  0.000000e+00 0.000000e+00 0.000000e+00 0.000000e+00 0.000000e+00 0.000000e+00  0.000000e+00 
-5.186322e-01 -6.966440e-01 0.000000e+00 61 1  0.000000e+00 0.000000e+00 0.000000e+00 0.000000e+00 0.000000e+00 0.000000e+00  0.000000e+00 
-5.582610e-01 -6.653096e-01 0.000000e+00 61 1  0.000000e+00 0.000000e+00 0.000000e+00 0.000000e+00 0.000000e+00 0.000000e+00  0.000000e+00 
-5.960009e-01 -6.317240e-01 0.000000e+00 61 1  0.000000e+00 0.000000e+00 0.000000e+00 0.000000e+00 0.000000e+00 0.000000e+00  0.000000e+00 
-6.317240e-01 -5.960009e-01 0.000000e+00 61 1  0.000000e+00 0.000000e+00 0.000000e+00 0.000000e+00 0.000000e+00 0.000000e+00  0.000000e+00 
-6.653096e-01 -5.582610e-01 0.000000e+00 61 1  0.000000e+00 0.000000e+00 0.000000e+00 0.000000e+00 0.000000e+00 0.000000e+00  0.000000e+00 
-6.966440e-01 -5.186322e-01 0.000000e+00 61 1  0.000000e+00 0.000000e+00 0.000000e+00 0.000000e+00 0.000000e+00 0.000000e+00  0.000000e+00 
-7.256212e-01 -4.772485e-01 0.000000e+00 61 1  0.000000e+00 0.000000e+00 0.000000e+00 0.000000e+00 0.000000e+00 0.000000e+00  0.000000e+00 
-7.521431e-01 -4.342500e-01 0.000000e+00 61 1  0.000000e+00 0.000000e+00 0.000000e+00 0.000000e+00 0.000000e+00 0.000000e+00  0.000000e+00 
-7.761199e-01 -3.897821e-01 0.000000e+00 61 1  0.000000e+00 0.000000e+00 0.000000e+00 0.000000e+00 0.000000e+00 0.000000e+00  0.000000e+00 
-7.974707e-01 -3.439953e-01 0.000000e+00 61 1  0.000000e+00 0.000000e+00 0.000000e+00 0.000000e+00 0.000000e+00 0.000000e+00  0.000000e+00 
-8.161230e-01 -2.970445e-01 0.000000e+00 61 1  0.000000e+00 0.000000e+00 0.000000e+00 0.000000e+00 0.000000e+00 0.000000e+00  0.000000e+00 
-8.320139e-01 -2.490886e-01 0.000000e+00 61 1  0.000000e+00 0.000000e+00 0.000000e+00 0.000000e+00 0.000000e+00 0.000000e+00  0.000000e+00 
-8.450895e-01 -2.002899e-01 0.000000e+00 61 1  0.000000e+00 0.000000e+00 0.000000e+00 0.000000e+00 0.000000e+00 0.000000e+00  0.000000e+00 
-8.553055e-01 -1.508134e-01 0.000000e+00 61 1  0.000000e+00 0.000000e+00 0.000000e+00 0.000000e+00 0.000000e+00 0.000000e+00  0.000000e+00 
-8.626275e-01 -1.008267e-01 0.000000e+00 61 1  0.000000e+00 0.000000e+00 0.000000e+00 0.000000e+00 0.000000e+00 0.000000e+00  0.000000e+00 
-8.670306e-01 -5.049878e-02 0.000000e+00 61 1  0.000000e+00 0.000000e+00 0.000000e+00 0.000000e+00 0.000000e+00 0.000000e+00  0.000000e+00 
-3.092159e-18 -5.049878e-02 8.670306e-01 61 1  7.281815e-11 1.916402e+01 -4.944563e-01 1.209552e+00 -1.911942e+01 0.000000e+00  0.000000e+00 
-6.173854e-18 -1.008267e-01 8.626275e-01 61 1  -9.792085e-11 1.274980e+01 -3.319005e-01 1.405880e+00 -1.266771e+01 0.000000e+00  0.000000e+00 
-9.234660e-18 -1.508134e-01 8.553055e-01 61 1  -9.949607e-11 1.990095e+01 -5.248499e-01 3.857024e+00 -1.951655e+01 0.000000e+00  0.000000e+00 
-1.226422e-17 -2.002899e-01 8.450895e-01 61 1  -4.498289e-10 5.003097e+01 -1.734211e+00 1.066439e+01 -4.885039e+01 0.000000e+00  0.000000e+00 
-1.525228e-17 -2.490886e-01 8.320139e-01 61 1  1.263435e-10 1.491681e+01 -5.659694e-01 4.345156e+00 -1.425870e+01 0.000000e+00  0.000000e+00 
-1.818873e-17 -2.970445e-01 8.161230e-01 61 1  -3.855452e-10 1.775720e+01 -4.657823e-01 6.553813e+00 -1.649694e+01 0.000000e+00  0.000000e+00 
-2.106364e-17 -3.439953e-01 7.974707e-01 61 1  -9.679626e-11 5.048323e+01 -1.455430e+00 1.950594e+01 -4.653983e+01 0.000000e+00  0.000000e+00 
-2.386727e-17 -3.897821e-01 7.761199e-01 61 1  1.492198e-10 2.418481e+01 -5.834320e-01 1.070284e+01 -2.167981e+01 0.000000e+00  0.000000e+00 
-2.659014e-17 -4.342500e-01 7.521431e-01 61 1  -1.402549e-10 9.933293e+00 -2.347797e-01 5.213289e+00 -8.452029e+00 0.000000e+00  0.000000e+00 
-2.922305e-17 -4.772485e-01 7.256212e-01 61 1  5.318056e-11 2.942356e+01 -8.324747e-01 1.611315e+01 -2.460526e+01 0.000000e+00  0.000000e+00 
-3.175707e-17 -5.186322e-01 6.966440e-01 61 1  1.232209e-10 5.863177e+01 -2.031866e+00 3.544597e+01 -4.665982e+01 0.000000e+00  0.000000e+00 
-3.418363e-17 -5.582610e-01 6.653096e-01 61 1  3.380031e-10 2.291626e+01 -6.481176e-01 1.439109e+01 -1.782221e+01 0.000000e+00  0.000000e+00 
-3.649453e-17 -5.960009e-01 6.317240e-01 61 1  5.450490e-10 3.143236e+01 -9.133924e-01 2.169149e+01 -2.272967e+01 0.000000e+00  0.000000e+00 
-3.868194e-17 -6.317240e-01 5.960009e-01 61 1  9.014769e-11 3.358290e+01 -9.398561e-01 2.438495e+01 -2.307167e+01 0.000000e+00  0.000000e+00 
-4.073846e-17 -6.653096e-01 5.582610e-01 61 1  -7.856741e-11 2.987467e+01 -6.640243e-01 2.300270e+01 -1.905074e+01 0.000000e+00  0.000000e+00 
-4.265714e-17 -6.966440e-01 5.186322e-01 61 1  -4.775716e-10 2.035343e+01 -3.506542e-01 1.627527e+01 -1.221699e+01 0.000000e+00  0.000000e+00 
-4.443148e-17 -7.256212e-01 4.772485e-01 61 1  -1.340738e-10 1.006177e+01 -1.932456e-01 8.330484e+00 -5.639591e+00 0.000000e+00  0.000000e+00 
-4.605548e-17 -7.521431e-01 4.342500e-01 61 1  -1.722508e-10 3.269243e+01 -1.027882e+00 2.851180e+01 -1.596294e+01 0.000000e+00  0.000000e+00 
-4.752364e-17 -7.761199e-01 3.897821e-01 61 1  -3.546365e-10 4.280080e+01 -1.397976e+00 3.801470e+01 -1.961726e+01 0.000000e+00  0.000000e+00 
-4.883100e-17 -7.974707e-01 3.439953e-01 61 1  5.777738e-11 6.725155e+00 -2.130782e-01 6.178947e+00 -2.646302e+00 0.000000e+00  0.000000e+00 
-4.997312e-17 -8.161230e-01 2.970445e-01 61 1  -2.340850e-10 1.446128e+01 -5.398792e-01 1.359960e+01 -4.887553e+00 0.000000e+00  0.000000e+00 
-5.094616e-17 -8.320139e-01 2.490886e-01 61 1  3.453675e-10 1.828819e+01 -7.490627e-01 1.752157e+01 -5.185668e+00 0.000000e+00  0.000000e+00 
-5.174681e-17 -8.450895e-01 2.002899e-01 61 1  1.419574e-10 2.220879e+01 -6.856806e-01 2.170119e+01 -4.671028e+00 0.000000e+00  0.000000e+00 
-5.237236e-17 -8.553055e-01 1.508134e-01 61 1  -9.231555e-11 1.871703e+01 -4.697712e-01 1.840779e+01 -3.355524e+00 0.000000e+00  0.000000e+00 
-5.282070e-17 -8.626275e-01 1.008267e-01 61 1  -1.461072e-10 1.560914e+00 -1.150801e-02 1.544391e+00 -2.262200e-01 0.000000e+00  0.000000e+00 
-5.309031e-17 -8.670306e-01 5.049878e-02 61 1  3.340547e-10 3.537210e+00 -2.409067e-02 3.535631e+00 -1.028764e-01 0.000000e+00  0.000000e+00 
8.670306e-01 -5.049878e-02 0.000000e+00 65 1  3.817268e-05 8.056327e+04 -8.040884e+04 4.911880e+03 -8.554089e+02 0.000000e+00  0.000000e+00 
8.626275e-01 -1.008267e-01 0.000000e+00 65 1  -3.937246e-06 7.870202e+04 -7.817626e+04 9.066989e+03 -5.200766e+02 0.000000e+00  0.000000e+00 
8.553055e-01 -1.508134e-01 0.000000e+00 65 1  -1.163133e-05 7.495458e+04 -7.379953e+04 1.310778e+04 -6.756654e+01 0.000000e+00  0.000000e+00 
8.450895e-01 -2.002899e-01 0.000000e+00 65 1  -2.588041e-05 7.623791e+04 -7.420997e+04 1.746680e+04 -1.054862e+02 0.000000e+00  0.000000e+00 
8.320139e-01 -2.490886e-01 0.000000e+00 65 1  -3.071105e-05 7.334364e+04 -7.026387e+04 2.102357e+04 5.366403e+02 0.000000e+00  0.000000e+00 
8.161230e-01 -2.970445e-01 0.000000e+00 65 1  -2.667055e-06 6.756136e+04 -6.352217e+04 2.300997e+04 1.111406e+02 0.000000e+00  0.000000e+00 
7.974707e-01 -3.439953e-01 0.000000e+00 65 1  -1.907403e-06 6.320870e+04 -5.805103e+04 2.500135e+04 -5.918265e+02 0.000000e+00  0.000000e+00 
7.761199e-01 -3.897821e-01 0.000000e+00 65 1  -2.834599e-05 6.312462e+04 -5.620712e+04 2.872962e+04 -2.938330e+02 0.000000e+00  0.000000e+00 
7.521431e-01 -4.342500e-01 0.000000e+00 65 1  -8.162350e-06 6.088143e+04 -5.288336e+04 3.016168e+04 4.134461e+02 0.000000e+00  0.000000e+00 
7.256212e-01 -4.772485e-01 0.000000e+00 65 1  -3.901584e-06 5.597424e+04 -4.684895e+04 3.062772e+04 -4.832945e+02 0.000000e+00  0.000000e+00 
6.966440e-01 -5.186322e-01 0.000000e+00 65 1  -2.017687e-05 5.264834e+04 -4.229452e+04 3.135222e+04 -2.459243e+02 0.000000e+00  0.000000e+00 
6.653096e-01 -5.582610e-01 0.000000e+00 65 1  -3.766425e-05 5.018086e+04 -3.850442e+04 3.217934e+04 -1.355730e+02 0.000000e+00  0.000000e+00 
6.317240e-01 -5.960009e-01 0.000000e+00 65 1  8.429777e-07 4.413499e+04 -3.223625e+04 3.014487e+04 -9.069172e+01 0.000000e+00  0.000000e+00 
5.960009e-01 -6.317240e-01 0.000000e+00 65 1  -3.442591e-06 3.539939e+04 -2.435587e+04 2.568834e+04 -1.323367e+02 0.000000e+00  0.000000e+00 
5.582610e-01 -6.653096e-01 0.000000e+00 65 1  -2.324079e-06 3.421175e+04 -2.182949e+04 2.634076e+04 -2.861078e+02 0.000000e+00  0.000000e+00 
5.186322e-01 -6.966440e-01 0.000000e+00 65 1  2.573907e-06 3.258222e+04 -1.948086e+04 2.611682e+04 -9.568318e+01 0.000000e+00  0.000000e+00 
4.772485e-01 -7.256212e-01 0.000000e+00 65 1  3.015063e-07 2.897660e+04 -1.598288e+04 2.416926e+04 1.938704e+02 0.000000e+00  0.000000e+00 
4.342500e-01 -7.521431e-01 0.000000e+00 65 1  6.013694e-07 2.038201e+04 -1.033357e+04 1.756760e+04 -1.530669e+02 0.000000e+00  0.000000e+00 
3.897821e-01 -7.761199e-01 0.000000e+00 65 1  -1.688034e-06 1.686300e+04 -7.554903e+03 1.507593e+04 1.800765e+01 0.000000e+00  0.000000e+00 
3.439953e-01 -7.974707e-01 0.000000e+00 65 1  -4.311980e-07 1.299205e+04 -5.158784e+03 1.192394e+04 -6.415757e-01 0.000000e+00  0.000000e+00 
2.970445e-01 -8.161230e-01 0.000000e+00 65 1  -9.186583e-07 9.116525e+03 -3.210012e+03 8.532685e+03 1.172802e+01 0.000000e+00  0.000000e+00 
2.490886e-01 -8.320139e-01 0.000000e+00 65 1  -8.046607e-07 6.623196e+03 -1.874812e+03 6.352066e+03 -5.536252e+01 0.000000e+00  0.000000e+00 
2.002899e-01 -8.450895e-01 0.000000e+00 65 1  6.794829e-08 4.779063e+03 -1.102300e+03 4.650173e+03 1.637486e+01 0.000000e+00  0.000000e+00 
1.508134e-01 -8.553055e-01 0.000000e+00 65 1  1.282535e-08 2.514789e+03 -4.750725e+02 2.469321e+03 3.039033e+01 0.000000e+00  0.000000e+00 
1.008267e-01 -8.626275e-01 0.000000e+00 65 1  -1.693435e-09 1.093792e+03 -1.380531e+02 1.084920e+03 -1.642761e+01 0.000000e+00  0.000000e+00 
5.049878e-02 -8.670306e-01 0.000000e+00 65 1  -9.424064e-10 2.795472e+02 -1.926066e+01 2.788819e+02 -7.672999e-01 0.000000e+00  0.000000e+00 
5.049878e-02 -6.184317e-18 8.670306e-01 65 1  7.243276e-10 4.433707e+02 -3.268059e+01 8.015390e-01 -4.421639e+02 0.000000e+00  0.000000e+00 
1.008267e-01 -1.234771e-17 8.626275e-01 65 1  2.029959e-09 1.119119e+03 -1.426476e+02 -2.914404e+00 -1.109987e+03 0.000000e+00  0.000000e+00 
1.508134e-01 -1.846932e-17 8.553055e-01 65 1  7.843253e-09 2.321804e+03 -4.138944e+02 -2.082880e+01 -2.284520e+03 0.000000e+00  0.000000e+00 
2.002899e-01 -2.452844e-17 8.450895e-01 65 1  1.226097e-08 3.741582e+03 -8.811551e+02 1.360433e+00 -3.636344e+03 0.000000e+00  0.000000e+00 
2.490886e-01 -3.050456e-17 8.320139e-01 65 1  1.882577e-08 5.989867e+03 -1.752796e+03 -4.649653e+01 -5.727483e+03 0.000000e+00  0.000000e+00 
2.970445e-01 -3.637746e-17 8.161230e-01 65 1  -2.549926e-09 9.368879e+03 -3.249887e+03 -1.299702e+01 -8.787147e+03 0.000000e+00  0.000000e+00 
3.439953e-01 -4.212727e-17 7.974707e-01 65 1  -1.660437e-06 1.218651e+04 -4.800697e+03 8.637364e+01 -1.120076e+04 0.000000e+00  0.000000e+00 
3.897821e-01 -4.773454e-17 7.761199e-01 65 1  -1.620012e-06 1.746747e+04 -7.925709e+03 5.850677e+01 -1.556573e+04 0.000000e+00  0.000000e+00 
4.342500e-01 -5.318029e-17 7.521431e-01 65 1  4.021128e-07 2.089147e+04 -1.038840e+04 2.551472e+01 -1.812551e+04 0.000000e+00  0.000000e+00 
4.772485e-01 -5.844609e-17 7.256212e-01 65 1  3.733629e-07 2.628040e+04 -1.451972e+04 1.007613e+02 -2.190496e+04 0.000000e+00  0.000000e+00 
5.186322e-01 -6.351413e-17 6.966440e-01 65 1  1.210483e-06 2.996510e+04 -1.780325e+04 2.066926e+02 -2.410205e+04 0.000000e+00  0.000000e+00 
5.582610e-01 -6.836726e-17 6.653096e-01 65 1  1.122001e-06 3.195415e+04 -2.057195e+04 4.651547e+02 -2.444681e+04 0.000000e+00  0.000000e+00 
5.960009e-01 -7.298906e-17 6.317240e-01 65 1  2.240562e-06 3.518891e+04 -2.410700e+04 6.114209e+01 -2.563412e+04 0.000000e+00  0.000000e+00 
6.317240e-01 -7.736388e-17 5.960009e-01 65 1  -2.861498e-07 3.950198e+04 -2.877261e+04 6.400947e+01 -2.706545e+04 0.000000e+00  0.000000e+00 
6.653096e-01 -8.147693e-17 5.582610e-01 65 1  8.324251e-06 4.526601e+04 -3.487578e+04 -1.958327e+02 -2.885572e+04 0.000000e+00  0.000000e+00 
6.966440e-01 -8.531428e-17 5.186322e-01 65 1  6.184623e-06 5.124635e+04 -4.108088e+04 -4.934908e+02 -3.063179e+04 0.000000e+00  0.000000e+00 
7.256212e-01 -8.886296e-17 4.772485e-01 65 1  2.930107e-06 6.017866e+04 -5.033942e+04 -3.427342e+02 -3.297417e+04 0.000000e+00  0.000000e+00 
7.521431e-01 -9.211096e-17 4.342500e-01 65 1  -1.080127e-07 5.938959e+04 -5.138638e+04 -3.324299e+02 -2.977335e+04 0.000000e+00  0.000000e+00 
7.761199e-01 -9.504728e-17 3.897821e-01 65 1  -3.370369e-05 6.267151e+04 -5.619232e+04 4.832871e+02 -2.774721e+04 0.000000e+00  0.000000e+00 
7.974707e-01 -9.766199e-17 3.439953e-01 65 1  -3.921753e-05 6.532313e+04 -5.999045e+04 4.683560e+02 -2.584642e+04 0.000000e+00  0.000000e+00 
8.161230e-01 -9.994625e-17 2.970445e-01 65 1  -1.214197e-05 7.251897e+04 -6.806100e+04 2.759499e+02 -2.503248e+04 0.000000e+00  0.000000e+00 
8.320139e-01 -1.018923e-16 2.490886e-01 65 1  -1.823864e-05 6.941353e+04 -6.641062e+04 9.081199e+01 -2.019555e+04 0.000000e+00  0.000000e+00 
8.450895e-01 -1.034936e-16 2.002899e-01 65 1  1.280339e-05 7.199616e+04 -7.014566e+04 -3.869235e+02 -1.621370e+04 0.000000e+00  0.000000e+00 
8.553055e-01 -1.047447e-16 1.508134e-01 65 1  3.787540e-05 7.880073e+04 -7.758360e+04 -2.704108e+02 -1.379373e+04 0.000000e+00  0.000000e+00 
8.626275e-01 -1.056414e-16 1.008267e-01 65 1  -6.129485e-05 7.961301e+04 -7.906645e+04 1.421120e+03 -9.203718e+03 0.000000e+00  0.000000e+00 
8.670306e-01 -1.061806e-16 5.049878e-02 65 1  -7.645633e-05 6.587808e+04 -6.576215e+04 2.698705e+02 -3.897168e+03 0.000000e+00  0.000000e+00 
5.049878e-02 8.670306e-01 0.000000e+00 69 1  -6.109913e-10 3.457840e+02 -2.693928e+01 -3.447265e+02 -2.111276e+00 0.000000e+00  0.000000e+00 
1.008267e-01 8.626275e-01 0.000000e+00 69 1  1.189074e-09 1.238587e+03 -1.577881e+02 -1.228438e+03 -1.184463e+01 0.000000e+00  0.000000e+00 
1.508134e-01 8.553055e-01 0.000000e+00 69 1  2.119443e-08 2.746342e+03 -4.966872e+02 -2.701054e+03 1.914172e+00 0.000000e+00  0.000000e+00 
2.002899e-01 8.450895e-01 0.000000e+00 69 1  2.145159e-08 4.056658e+03 -9.371060e+02 -3.946883e+03 2.043752e+01 0.000000e+00  0.000000e+00 
2.490886e-01 8.320139e-01 0.000000e+00 69 1  7.500598e-08 6.850102e+03 -1.998012e+03 -6.552232e+03 1.012873e+01 0.000000e+00  0.000000e+00 
2.970445e-01 8.161230e-01 0.000000e+00 69 1  1.847640e-07 9.465509e+03 -3.322028e+03 -8.863407e+03 -1.094890e+00 0.000000e+00  0.000000e+00 
3.439953e-01 7.974707e-01 0.000000e+00 69 1  1.792501e-07 1.259134e+04 -5.009987e+03 -1.155130e+04 -9.776616e+01 0.000000e+00  0.000000e+00 
3.897821e-01 7.761199e-01 0.000000e+00 69 1  7.836265e-08 1.644745e+04 -7.343445e+03 -1.471673e+04 -1.011250e+02 0.000000e+00  0.000000e+00 
4.342500e-01 7.521431e-01 0.000000e+00 69 1  1.887654e-06 1.978927e+04 -9.926646e+03 -1.711889e+04 1.423438e+02 0.000000e+00  0.000000e+00 
4.772485e-01 7.256212e-01 0.000000e+00 69 1  -3.837456e-07 2.380430e+04 -1.315434e+04 -1.983936e+04 8.806739e+01 0.000000e+00  0.000000e+00 
5.186322e-01 6.966440e-01 0.000000e+00 69 1  -1.695537e-07 2.799393e+04 -1.672844e+04 -2.244473e+04 2.306658e+02 0.000000e+00  0.000000e+00 
5.582610e-01 6.653096e-01 0.000000e+00 69 1  -1.159772e-05 3.435668e+04 -2.206098e+04 -2.633802e+04 6.045052e+01 0.000000e+00  0.000000e+00 
5.960009e-01 6.317240e-01 0.000000e+00 69 1  -1.344886e-05 4.208148e+04 -2.883575e+04 -3.064875e+04 -6.864394e+01 0.000000e+00  0.000000e+00 
6.317240e-01 5.960009e-01 0.000000e+00 69 1  2.296973e-06 4.097837e+04 -2.992599e+04 -2.799380e+04 -9.194109e+01 0.000000e+00  0.000000e+00 
6.653096e-01 5.582610e-01 0.000000e+00 69 1  1.442152e-07 4.228546e+04 -3.236732e+04 -2.720574e+04 -5.142880e+02 0.000000e+00  0.000000e+00 
6.966440e-01 5.186322e-01 0.000000e+00 69 1  1.537734e-06 5.070118e+04 -4.083628e+04 -3.004775e+04 -3.740334e+02 0.000000e+00  0.000000e+00 
7.256212e-01 4.772485e-01 0.000000e+00 69 1  -3.357372e-06 5.814614e+04 -4.854566e+04 -3.200328e+04 -2.884951e+02 0.000000e+00  0.000000e+00 
7.521431e-01 4.342500e-01 0.000000e+00 69 1  -1.504762e-05 6.209900e+04 -5.401478e+04 -3.063797e+04 -6.397227e+01 0.000000e+00  0.000000e+00 
7.761199e-01 3.897821e-01 0.000000e+00 69 1  -2.067405e-05 6.762871e+04 -6.036468e+04 -3.049161e+04 -9.319067e+01 0.000000e+00  0.000000e+00 
7.974707e-01 3.439953e-01 0.000000e+00 69 1  1.527147e-05 6.995865e+04 -6.437290e+04 -2.738811e+04 -4.833797e+02 0.000000e+00  0.000000e+00 
8.161230e-01 2.970445e-01 0.000000e+00 69 1  2.062960e-05 7.075349e+04 -6.648390e+04 -2.420616e+04 9.741330e+01 0.000000e+00  0.000000e+00 