VARIABLES="Lon", "Lat",  "Cutoff Rigidity [GV] (s=0)", "Injected Particle Number (s=0)", "Max energy injected particles (s=0)"
ZONE I=21, J=21, DATAPACKING=POINT
-1.800000e+02 9.000000e+01   -1.000000e+00  5.055000e+03  6.371129e+00
-1.620000e+02 9.000000e+01   -1.000000e+00  5.064500e+03  1.659236e+01
-1.440000e+02 9.000000e+01   -1.000000e+00  5.051500e+03  4.570849e+01
-1.260000e+02 9.000000e+01   -1.000000e+00  5.038500e+03  3.571662e+01
-1.080000e+02 9.000000e+01   -1.000000e+00  5.057500e+03  3.824949e+01
-9.000000e+01 9.000000e+01   -1.000000e+00  5.041500e+03  2.162300e+01
-7.200000e+01 9.000000e+01   -1.000000e+00  5.047000e+03  3.031837e+01
-5.400000e+01 9.000000e+01   -1.000000e+00  5.050000e+03  2.815552e+01
-3.600000e+01 9.000000e+01   -1.000000e+00  5.050000e+03  4.755986e+00
-1.800000e+01 9.000000e+01   -1.000000e+00  5.050000e+03  1.106116e+01
0.000000e+00 9.000000e+01   -1.000000e+00  5.050000e+03  1.776984e+01
1.800000e+01 9.000000e+01   -1.000000e+00  5.050000e+03  2.515188e+01
3.600000e+01 9.000000e+01   -1.000000e+00  5.050000e+03  4.129573e+01
5.400000e+01 9.000000e+01   -1.000000e+00  5.050000e+03  2.154692e+01
7.200000e+01 9.000000e+01   -1.000000e+00  5.050000e+03  4.559401e+01
9.000000e+01 9.000000e+01   -1.000000e+00  5.055000e+03  1.028591e+01
1.080000e+02 9.000000e+01   -1.000000e+00  5.075500e+03  1.274708e+01
1.260000e+02 9.000000e+01   -1.000000e+00  5.009000e+03  2.601590e+01
1.440000e+02 9.000000e+01   -1.000000e+00  5.006500e+03  8.007909e+00
1.620000e+02 9.000000e+01   -1.000000e+00  5.084500e+03  2.731876e+01
1.800000e+02 9.000000e+01   -1.000000e+00  5.055000e+03  6.371129e+00
-1.800000e+02 8.100000e+01   -1.000000e+00  5.048264e+03  3.341662e+01
-1.620000e+02 8.100000e+01   -1.000000e+00  5.048783e+03  1.789729e+01
-1.440000e+02 8.100000e+01   -1.000000e+00  5.047384e+03  9.900076e+00
-1.260000e+02 8.100000e+01   -1.000000e+00  5.047107e+03  1.678466e+01
-1.080000e+02 8.100000e+01   -1.000000e+00  5.051887e+03  3.270950e+01
-9.000000e+01 8.100000e+01   -1.000000e+00  5.035138e+03  4.421599e+01
-7.200000e+01 8.100000e+01   -1.000000e+00  5.048871e+03  3.317529e+01
-5.400000e+01 8.100000e+01   -1.000000e+00  5.038025e+03  3.319309e+01
-3.600000e+01 8.100000e+01   -1.000000e+00  5.017817e+03  7.966076e+00
-1.800000e+01 8.100000e+01   -1.000000e+00  5.051123e+03  7.368427e+00
0.000000e+00 8.100000e+01   -1.000000e+00  5.024927e+03  2.800473e+01
1.800000e+01 8.100000e+01   -1.000000e+00  5.025301e+03  4.292179e+01
3.600000e+01 8.100000e+01   -1.000000e+00  5.068337e+03  2.327755e+01
5.400000e+01 8.100000e+01   -1.000000e+00  5.050748e+03  2.540370e+01
7.200000e+01 8.100000e+01   -1.000000e+00  5.047380e+03  9.859950e+00
9.000000e+01 8.100000e+01   -1.000000e+00  5.019074e+03  2.473733e+01
1.080000e+02 8.100000e+01   -1.000000e+00  5.016747e+03  3.307302e+01
1.260000e+02 8.100000e+01   -1.000000e+00  5.037815e+03  4.818696e+00
1.440000e+02 8.100000e+01   -1.000000e+00  5.039058e+03  1.671876e+01
1.620000e+02 8.100000e+01   -1.000000e+00  5.057556e+03  2.854680e+01
1.800000e+02 8.100000e+01   -1.000000e+00  5.048264e+03  3.341662e+01
-1.800000e+02 7.200000e+01   -1.000000e+00  5.050037e+03  2.949409e+00
-1.620000e+02 7.200000e+01   -1.000000e+00  5.047537e+03  4.646642e+01
-1.440000e+02 7.200000e+01   -1.000000e+00  5.049106e+03  1.622932e+01
-1.260000e+02 7.200000e+01   -1.000000e+00  5.050621e+03  4.962556e+00
-1.080000e+02 7.200000e+01   -1.000000e+00  5.049068e+03  7.990514e+00
-9.000000e+01 7.200000e+01   -1.000000e+00  5.045112e+03  4.179061e+01
-7.200000e+01 7.200000e+01   -1.000000e+00  5.052295e+03  4.705393e+01
-5.400000e+01 7.200000e+01   -1.000000e+00  5.045491e+03  9.542132e+00
-3.600000e+01 7.200000e+01   -1.000000e+00  5.035260e+03  4.035435e+00
-1.800000e+01 7.200000e+01   -1.000000e+00  5.050568e+03  2.664287e+01
0.000000e+00 7.200000e+01   -1.000000e+00  5.037307e+03  1.174291e+01
1.800000e+01 7.200000e+01   -1.000000e+00  5.037497e+03  3.230857e+00
3.600000e+01 7.200000e+01   -1.000000e+00  5.059283e+03  1.813030e+00
5.400000e+01 7.200000e+01   -1.000000e+00  5.051621e+03  4.392138e+00
7.200000e+01 7.200000e+01   -1.000000e+00  5.053643e+03  2.397044e+00
9.000000e+01 7.200000e+01   -1.000000e+00  5.037434e+03  1.464958e+01
1.080000e+02 7.200000e+01   -1.000000e+00  5.054763e+03  2.694961e+01
1.260000e+02 7.200000e+01   -1.000000e+00  5.073897e+03  1.203532e+01
1.440000e+02 7.200000e+01   -1.000000e+00  5.050621e+03  3.629274e+01
1.620000e+02 7.200000e+01   -1.000000e+00  5.051606e+03  4.134369e+01
1.800000e+02 7.200000e+01   -1.000000e+00  5.050037e+03  2.949409e+00
-1.800000e+02 6.300000e+01   -1.000000e+00  5.051057e+03  9.607700e+00
-1.620000e+02 6.300000e+01   -1.000000e+00  5.050000e+03  1.640719e+01
-1.440000e+02 6.300000e+01   -1.000000e+00  5.072069e+03  8.751566e+00
-1.260000e+02 6.300000e+01   -1.000000e+00  5.074378e+03  2.461888e+01
-1.080000e+02 6.300000e+01   -1.000000e+00  5.061776e+03  1.571879e+01
-9.000000e+01 6.300000e+01   -1.000000e+00  5.061158e+03  4.492907e+00
-7.200000e+01 6.300000e+01   -1.000000e+00  5.051691e+03  7.682138e+00
-5.400000e+01 6.300000e+01   -1.000000e+00  5.042976e+03  4.228261e+01
-3.600000e+01 6.300000e+01   -1.000000e+00  5.042976e+03  4.923872e+01
-1.800000e+01 6.300000e+01   -1.000000e+00  5.050000e+03  4.682806e+00
0.000000e+00 6.300000e+01   -1.000000e+00  5.050000e+03  5.889550e+00
1.800000e+01 6.300000e+01   -1.000000e+00  5.050000e+03  5.410941e+00
3.600000e+01 6.300000e+01   -1.000000e+00  5.050000e+03  1.061035e+00
5.400000e+01 6.300000e+01   -1.000000e+00  5.037858e+03  2.989974e+01
7.200000e+01 6.300000e+01   -1.000000e+00  5.040394e+03  1.223666e+01
9.000000e+01 6.300000e+01   -1.000000e+00  5.052537e+03  3.434647e+00
1.080000e+02 6.300000e+01   -1.000000e+00  5.066911e+03  3.043354e+01
1.260000e+02 6.300000e+01   -1.000000e+00  5.045553e+03  1.355436e+01
1.440000e+02 6.300000e+01   -1.000000e+00  5.008285e+03  1.749425e+01
1.620000e+02 6.300000e+01   -1.000000e+00  5.030699e+03  2.189365e+01
1.800000e+02 6.300000e+01   -1.000000e+00  5.051057e+03  9.607700e+00
-1.800000e+02 5.400000e+01   -1.000000e+00  5.050000e+03  8.779667e+00
-1.620000e+02 5.400000e+01   -1.000000e+00  5.050000e+03  4.592352e+00
-1.440000e+02 5.400000e+01   -1.000000e+00  5.061177e+03  1.700435e+01
-1.260000e+02 5.400000e+01   -1.000000e+00  5.071827e+03  1.938527e+01
-1.080000e+02 5.400000e+01   -1.000000e+00  5.068452e+03  1.091871e+00
-9.000000e+01 5.400000e+01   -1.000000e+00  5.057802e+03  1.352745e+00
-7.200000e+01 5.400000e+01   -1.000000e+00  5.050000e+03  1.482851e+00
-5.400000e+01 5.400000e+01   -1.000000e+00  5.059829e+03  1.779846e+00
-3.600000e+01 5.400000e+01   -1.000000e+00  5.059829e+03  9.780037e+00
-1.800000e+01 5.400000e+01   -1.000000e+00  5.050000e+03  2.554306e+00
0.000000e+00 5.400000e+01   -1.000000e+00  5.050000e+03  1.258910e+00
1.800000e+01 5.400000e+01   -1.000000e+00  5.050000e+03  2.611449e+00
3.600000e+01 5.400000e+01   -1.000000e+00  5.050000e+03  2.083843e+00
5.400000e+01 5.400000e+01   -1.000000e+00  5.012261e+03  2.056777e+00
7.200000e+01 5.400000e+01   -1.000000e+00  5.012261e+03  2.478332e+00
9.000000e+01 5.400000e+01   -1.000000e+00  5.050000e+03  1.484624e+00
1.080000e+02 5.400000e+01   -1.000000e+00  5.050000e+03  4.164992e+00
1.260000e+02 5.400000e+01   -1.000000e+00  5.040431e+03  3.666392e+01
1.440000e+02 5.400000e+01   -1.000000e+00  5.038235e+03  2.512377e+01
1.620000e+02 5.400000e+01   -1.000000e+00  5.047804e+03  2.303936e+01
1.800000e+02 5.400000e+01   -1.000000e+00  5.050000e+03  8.779667e+00
-1.800000e+02 4.500000e+01   -1.000000e+00  5.050000e+03  3.858874e+00
-1.620000e+02 4.500000e+01   -1.000000e+00  5.050000e+03  1.750429e+01
-1.440000e+02 4.500000e+01   -1.000000e+00  5.046203e+03  3.298922e+01
-1.260000e+02 4.500000e+01   -1.000000e+00  5.052764e+03  3.935930e+01
-1.080000e+02 4.500000e+01   -1.000000e+00  5.062764e+03  1.514651e+01
-9.000000e+01 4.500000e+01   -1.000000e+00  5.057012e+03  1.128980e+01
-7.200000e+01 4.500000e+01   -1.000000e+00  5.050809e+03  2.302283e+00
-5.400000e+01 4.500000e+01   -1.000000e+00  5.064438e+03  3.125445e+01
-3.600000e+01 4.500000e+01   -1.000000e+00  5.064438e+03  1.503862e+01
-1.800000e+01 4.500000e+01   -1.000000e+00  5.050000e+03  2.124235e+01
0.000000e+00 4.500000e+01   -1.000000e+00  5.044067e+03  1.449673e+01
1.800000e+01 4.500000e+01   -1.000000e+00  5.044067e+03  3.211615e+01
3.600000e+01 4.500000e+01   -1.000000e+00  5.050000e+03  2.830678e+00
5.400000e+01 4.500000e+01   -1.000000e+00  5.026698e+03  4.092235e+00
7.200000e+01 4.500000e+01   -1.000000e+00  5.026698e+03  3.103857e+01
9.000000e+01 4.500000e+01   -1.000000e+00  5.050000e+03  1.520039e+00
1.080000e+02 4.500000e+01   -1.000000e+00  5.065102e+03  4.320062e+00
1.260000e+02 4.500000e+01   -1.000000e+00  5.073826e+03  2.570510e+00
1.440000e+02 4.500000e+01   -1.000000e+00  5.052173e+03  1.316863e+01
1.620000e+02 4.500000e+01   -1.000000e+00  5.043448e+03  4.565534e+01
1.800000e+02 4.500000e+01   -1.000000e+00  5.050000e+03  3.858874e+00
-1.800000e+02 3.600000e+01   -1.000000e+00  5.050000e+03  1.726658e+00
-1.620000e+02 3.600000e+01   -1.000000e+00  5.050000e+03  2.428406e+01
-1.440000e+02 3.600000e+01   -1.000000e+00  5.046214e+03  2.513202e+01
-1.260000e+02 3.600000e+01   -1.000000e+00  5.047886e+03  1.552872e+01
-1.080000e+02 3.600000e+01   -1.000000e+00  5.054450e+03  1.803334e+01
-9.000000e+01 3.600000e+01   -1.000000e+00  5.052957e+03  3.879981e+01
-7.200000e+01 3.600000e+01   -1.000000e+00  5.050179e+03  5.848102e+00
-5.400000e+01 3.600000e+01   -1.000000e+00  5.051207e+03  2.480169e+01
-3.600000e+01 3.600000e+01   -1.000000e+00  5.051207e+03  6.476880e+00
-1.800000e+01 3.600000e+01   -1.000000e+00  5.050000e+03  2.577713e+00
0.000000e+00 3.600000e+01   -1.000000e+00  5.052215e+03  9.726621e+00
1.800000e+01 3.600000e+01   -1.000000e+00  5.052215e+03  2.120157e+01
3.600000e+01 3.600000e+01   -1.000000e+00  5.050000e+03  1.468586e+00
5.400000e+01 3.600000e+01   -1.000000e+00  5.061922e+03  6.704752e+00
7.200000e+01 3.600000e+01   -1.000000e+00  5.061922e+03  6.333130e+00
9.000000e+01 3.600000e+01   -1.000000e+00  5.050000e+03  7.049226e+00
1.080000e+02 3.600000e+01   -1.000000e+00  5.066635e+03  4.412214e+01
1.260000e+02 3.600000e+01   -1.000000e+00  5.080593e+03  1.331279e+01
1.440000e+02 3.600000e+01   -1.000000e+00  5.036272e+03  1.774623e+01
1.620000e+02 3.600000e+01   -1.000000e+00  5.022314e+03  7.825899e+00
1.800000e+02 3.600000e+01   -1.000000e+00  5.050000e+03  1.726658e+00
-1.800000e+02 2.700000e+01   -1.000000e+00  5.050000e+03  1.258599e+00
-1.620000e+02 2.700000e+01   -1.000000e+00  5.050000e+03  1.753799e+01
-1.440000e+02 2.700000e+01   -1.000000e+00  5.049301e+03  2.751549e+00
-1.260000e+02 2.700000e+01   -1.000000e+00  5.052761e+03  4.421024e+01
-1.080000e+02 2.700000e+01   -1.000000e+00  5.051060e+03  6.906663e+00
-9.000000e+01 2.700000e+01   -1.000000e+00  5.046340e+03  3.162127e+01
-7.200000e+01 2.700000e+01   -1.000000e+00  5.047180e+03  1.763387e+01
-5.400000e+01 2.700000e+01   -1.000000e+00  5.046080e+03  6.316879e+00
-3.600000e+01 2.700000e+01   -1.000000e+00  5.049720e+03  3.577846e+01
-1.800000e+01 2.700000e+01   -1.000000e+00  5.052080e+03  1.137188e+01
0.000000e+00 2.700000e+01   -1.000000e+00  5.059580e+03  1.360409e+01
1.800000e+01 2.700000e+01   -1.000000e+00  5.078041e+03  9.390968e+00
3.600000e+01 2.700000e+01   -1.000000e+00  5.075742e+03  5.847753e+00
5.400000e+01 2.700000e+01   -1.000000e+00  5.088081e+03  8.532757e+00
7.200000e+01 2.700000e+01   -1.000000e+00  5.080801e+03  3.654684e+01
9.000000e+01 2.700000e+01   -1.000000e+00  5.050000e+03  2.490567e+00
1.080000e+02 2.700000e+01   -1.000000e+00  5.053120e+03  2.924283e+00
1.260000e+02 2.700000e+01   -1.000000e+00  5.063439e+03  4.526482e+00
1.440000e+02 2.700000e+01   -1.000000e+00  5.056541e+03  2.849051e+01
1.620000e+02 2.700000e+01   -1.000000e+00  5.046222e+03  8.060067e+00
1.800000e+02 2.700000e+01   -1.000000e+00  5.050000e+03  1.258599e+00
-1.800000e+02 1.800000e+01   -1.000000e+00  5.050000e+03  1.082812e+01
-1.620000e+02 1.800000e+01   -1.000000e+00  5.050000e+03  1.216487e+01
-1.440000e+02 1.800000e+01   -1.000000e+00  5.053167e+03  6.050753e+00
-1.260000e+02 1.800000e+01   -1.000000e+00  5.052847e+03  1.395557e+01
-1.080000e+02 1.800000e+01   -1.000000e+00  5.049680e+03  5.892266e+00
-9.000000e+01 1.800000e+01   -1.000000e+00  5.050551e+03  2.635952e+01
-7.200000e+01 1.800000e+01   -1.000000e+00  5.049090e+03  2.223779e+00
-5.400000e+01 1.800000e+01   -1.000000e+00  5.046102e+03  1.473563e+01
-3.600000e+01 1.800000e+01   -1.000000e+00  5.038744e+03  2.298712e+01
-1.800000e+01 1.800000e+01   -1.000000e+00  5.041180e+03  1.626002e+00
0.000000e+00 1.800000e+01   -1.000000e+00  5.066269e+03  3.623209e+01
1.800000e+01 1.800000e+01   -1.000000e+00  5.072540e+03  1.942815e+01
3.600000e+01 1.800000e+01   -1.000000e+00  5.063092e+03  2.626952e+01
5.400000e+01 1.800000e+01   -1.000000e+00  5.069182e+03  3.880267e+01
7.200000e+01 1.800000e+01   -1.000000e+00  5.062361e+03  3.158441e+00
9.000000e+01 1.800000e+01   -1.000000e+00  5.050000e+03  7.873811e+00
1.080000e+02 1.800000e+01   -1.000000e+00  5.050000e+03  3.955384e+01
1.260000e+02 1.800000e+01   -1.000000e+00  5.050000e+03  2.199555e+00
1.440000e+02 1.800000e+01   -1.000000e+00  5.044014e+03  2.821572e+01
1.620000e+02 1.800000e+01   -1.000000e+00  5.044014e+03  5.458918e+00
1.800000e+02 1.800000e+01   -1.000000e+00  5.050000e+03  1.082812e+01
-1.800000e+02 9.000000e+00   -1.000000e+00  5.050000e+03  1.441125e+01
-1.620000e+02 9.000000e+00   -1.000000e+00  5.050000e+03  5.684617e+00
-1.440000e+02 9.000000e+00   -1.000000e+00  5.050000e+03  1.308554e+00
-1.260000e+02 9.000000e+00   -1.000000e+00  5.043203e+03  2.205483e+01
-1.080000e+02 9.000000e+00   -1.000000e+00  5.043203e+03  3.296504e+01
-9.000000e+01 9.000000e+00   -1.000000e+00  5.048703e+03  1.979923e+01
-7.200000e+01 9.000000e+00   -1.000000e+00  5.051488e+03  2.942569e+01
-5.400000e+01 9.000000e+00   -1.000000e+00  5.060378e+03  1.566479e+01
-3.600000e+01 9.000000e+00   -1.000000e+00  5.041656e+03  3.131574e+01
-1.800000e+01 9.000000e+00   -1.000000e+00  5.037606e+03  8.153542e+00
0.000000e+00 9.000000e+00   -1.000000e+00  5.066628e+03  1.470188e+01
1.800000e+01 9.000000e+00   -1.000000e+00  5.051963e+03  2.888780e+01
3.600000e+01 9.000000e+00   -1.000000e+00  5.043181e+03  3.491859e+00
5.400000e+01 9.000000e+00   -1.000000e+00  5.044075e+03  1.890512e+01
7.200000e+01 9.000000e+00   -1.000000e+00  5.048378e+03  4.024065e+01
9.000000e+01 9.000000e+00   -1.000000e+00  5.059112e+03  1.527066e+01
1.080000e+02 9.000000e+00   -1.000000e+00  5.050506e+03  1.496581e+01
1.260000e+02 9.000000e+00   -1.000000e+00  5.050000e+03  1.135408e+00
1.440000e+02 9.000000e+00   -1.000000e+00  5.013857e+03  4.717733e+00
1.620000e+02 9.000000e+00   -1.000000e+00  5.013857e+03  3.770319e+00
1.800000e+02 9.000000e+00   -1.000000e+00  5.050000e+03  1.441125e+01
-1.800000e+02 3.508355e-15   -1.000000e+00  5.050750e+03  4.227396e+00
-1.620000e+02 3.508355e-15   -1.000000e+00  5.048750e+03  9.857158e+00
-1.440000e+02 3.508355e-15   -1.000000e+00  5.039500e+03  1.540630e+01
-1.260000e+02 3.508355e-15   -1.000000e+00  5.030500e+03  1.094874e+01
-1.080000e+02 3.508355e-15   -1.000000e+00  5.051750e+03  5.844120e+00
-9.000000e+01 3.508355e-15   -1.000000e+00  5.064250e+03  4.114395e+00
-7.200000e+01 3.508355e-15   -1.000000e+00  5.055000e+03  3.477384e+00
-5.400000e+01 3.508355e-15   -1.000000e+00  5.060250e+03  2.919353e+01
-3.600000e+01 3.508355e-15   -1.000000e+00  5.063000e+03  1.739111e+01
-1.800000e+01 3.508355e-15   -1.000000e+00  5.059000e+03  6.434456e+00
0.000000e+00 3.508355e-15   -1.000000e+00  5.053500e+03  3.612619e+01
1.800000e+01 3.508355e-15   -1.000000e+00  5.049500e+03  5.011023e+00
3.600000e+01 3.508355e-15   -1.000000e+00  5.053750e+03  1.384704e+00
5.400000e+01 3.508355e-15   -1.000000e+00  5.051000e+03  2.396586e+00
7.200000e+01 3.508355e-15   -1.000000e+00  5.055250e+03  2.730008e+00
9.000000e+01 3.508355e-15   -1.000000e+00  5.056750e+03  5.339395e+00
1.080000e+02 3.508355e-15   -1.000000e+00  5.056000e+03  2.091779e+01
1.260000e+02 3.508355e-15   -1.000000e+00  5.048750e+03  1.194398e+01
1.440000e+02 3.508355e-15   -1.000000e+00  4.998250e+03  4.074780e+01
1.620000e+02 3.508355e-15   -1.000000e+00  5.008000e+03  4.579955e+00
1.800000e+02 3.508355e-15   -1.000000e+00  5.050750e+03  4.227396e+00
-1.800000e+02 -9.000000e+00   -1.000000e+00  5.052488e+03  5.493561e+00
-1.620000e+02 -9.000000e+00   -1.000000e+00  5.050463e+03  4.509735e+01
-1.440000e+02 -9.000000e+00   -1.000000e+00  5.039369e+03  2.898470e+01
-1.260000e+02 -9.000000e+00   -1.000000e+00  5.049645e+03  7.774679e+00
-1.080000e+02 -9.000000e+00   -1.000000e+00  5.071160e+03  2.797590e+01
-9.000000e+01 -9.000000e+00   -1.000000e+00  5.066959e+03  3.583386e+01
-7.200000e+01 -9.000000e+00   -1.000000e+00  5.054809e+03  8.567351e+00
-5.400000e+01 -9.000000e+00   -1.000000e+00  5.050000e+03  8.782893e+00
-3.600000e+01 -9.000000e+00   -1.000000e+00  5.059656e+03  4.258034e+01
-1.800000e+01 -9.000000e+00   -1.000000e+00  5.059656e+03  3.681065e+01
0.000000e+00 -9.000000e+00   -1.000000e+00  5.050000e+03  5.754959e+00
1.800000e+01 -9.000000e+00   -1.000000e+00  5.050000e+03  3.046778e+01
3.600000e+01 -9.000000e+00   -1.000000e+00  5.050000e+03  2.343789e+00
5.400000e+01 -9.000000e+00   -1.000000e+00  5.048050e+03  1.355713e+01
7.200000e+01 -9.000000e+00   -1.000000e+00  5.048050e+03  1.657125e+01
9.000000e+01 -9.000000e+00   -1.000000e+00  5.047722e+03  2.603725e+00
1.080000e+02 -9.000000e+00   -1.000000e+00  5.055569e+03  3.221565e+00
1.260000e+02 -9.000000e+00   -1.000000e+00  5.048734e+03  3.096125e+01
1.440000e+02 -9.000000e+00   -1.000000e+00  5.016466e+03  3.017136e+01
1.620000e+02 -9.000000e+00   -1.000000e+00  5.026338e+03  3.961872e+00
1.800000e+02 -9.000000e+00   -1.000000e+00  5.052488e+03  5.493561e+00
-1.800000e+02 -1.800000e+01   -1.000000e+00  5.051795e+03  1.599604e+00
-1.620000e+02 -1.800000e+01   -1.000000e+00  5.051795e+03  6.291327e+00
-1.440000e+02 -1.800000e+01   -1.000000e+00  5.050000e+03  1.992003e+00
-1.260000e+02 -1.800000e+01   -1.000000e+00  5.052921e+03  3.032624e+01
-1.080000e+02 -1.800000e+01   -1.000000e+00  5.052921e+03  2.481148e+00
-9.000000e+01 -1.800000e+01   -1.000000e+00  5.050000e+03  2.459185e+01
-7.200000e+01 -1.800000e+01   -1.000000e+00  5.050000e+03  3.993571e+01
-5.400000e+01 -1.800000e+01   -1.000000e+00  5.050000e+03  2.890624e+00
-3.600000e+01 -1.800000e+01   -1.000000e+00  5.066001e+03  2.713352e+01
-1.800000e+01 -1.800000e+01   -1.000000e+00  5.066001e+03  1.852269e+01
0.000000e+00 -1.800000e+01   -1.000000e+00  5.050000e+03  8.497008e+00
1.800000e+01 -1.800000e+01   -1.000000e+00  5.050000e+03  3.366119e+01
3.600000e+01 -1.800000e+01   -1.000000e+00  5.049756e+03  3.725406e+01
5.400000e+01 -1.800000e+01   -1.000000e+00  5.044974e+03  5.658649e+00
7.200000e+01 -1.800000e+01   -1.000000e+00  5.045218e+03  1.525751e+00
9.000000e+01 -1.800000e+01   -1.000000e+00  5.050000e+03  4.178917e+00
1.080000e+02 -1.800000e+01   -1.000000e+00  5.050000e+03  1.257660e+00
1.260000e+02 -1.800000e+01   -1.000000e+00  5.050000e+03  2.465762e+01
1.440000e+02 -1.800000e+01   -1.000000e+00  5.046808e+03  7.901565e+00
1.620000e+02 -1.800000e+01   -1.000000e+00  5.046808e+03  9.476966e+00
1.800000e+02 -1.800000e+01   -1.000000e+00  5.051795e+03  1.599604e+00
-1.800000e+02 -2.700000e+01   -1.000000e+00  5.050000e+03  1.708815e+01
-1.620000e+02 -2.700000e+01   -1.000000e+00  5.050000e+03  3.543284e+00
-1.440000e+02 -2.700000e+01   -1.000000e+00  5.050000e+03  4.582744e+00
-1.260000e+02 -2.700000e+01   -1.000000e+00  5.042798e+03  2.395232e+01
-1.080000e+02 -2.700000e+01   -1.000000e+00  5.042798e+03  1.349590e+01
-9.000000e+01 -2.700000e+01   -1.000000e+00  5.050000e+03  1.056691e+01
-7.200000e+01 -2.700000e+01   -1.000000e+00  5.038961e+03  1.227439e+01
-5.400000e+01 -2.700000e+01   -1.000000e+00  5.044001e+03  1.565439e+01
-3.600000e+01 -2.700000e+01   -1.000000e+00  5.065122e+03  1.526159e+01
-1.800000e+01 -2.700000e+01   -1.000000e+00  5.060083e+03  2.127226e+01
0.000000e+00 -2.700000e+01   -1.000000e+00  5.050000e+03  1.617646e+00
1.800000e+01 -2.700000e+01   -1.000000e+00  5.050000e+03  2.820553e+01
3.600000e+01 -2.700000e+01   -1.000000e+00  5.054539e+03  1.908882e+00
5.400000e+01 -2.700000e+01   -1.000000e+00  5.044560e+03  2.337333e+01
7.200000e+01 -2.700000e+01   -1.000000e+00  5.031382e+03  1.580387e+01
9.000000e+01 -2.700000e+01   -1.000000e+00  5.040641e+03  8.425745e+00
1.080000e+02 -2.700000e+01   -1.000000e+00  5.049280e+03  3.325501e+01
1.260000e+02 -2.700000e+01   -1.000000e+00  5.054320e+03  4.679965e+01
1.440000e+02 -2.700000e+01   -1.000000e+00  5.057860e+03  2.330241e+01
1.620000e+02 -2.700000e+01   -1.000000e+00  5.053540e+03  3.579624e+01
1.800000e+02 -2.700000e+01   -1.000000e+00  5.050000e+03  1.708815e+01
-1.800000e+02 -3.600000e+01   -1.000000e+00  5.050000e+03  1.883638e+01
-1.620000e+02 -3.600000e+01   -1.000000e+00  5.050000e+03  7.712362e+00
-1.440000e+02 -3.600000e+01   -1.000000e+00  5.050000e+03  1.040868e+01
-1.260000e+02 -3.600000e+01   -1.000000e+00  5.071842e+03  7.578919e+00
-1.080000e+02 -3.600000e+01   -1.000000e+00  5.071842e+03  2.952863e+00
-9.000000e+01 -3.600000e+01   -1.000000e+00  5.050000e+03  3.555308e+01
-7.200000e+01 -3.600000e+01   -1.000000e+00  5.030300e+03  5.512022e+00
-5.400000e+01 -3.600000e+01   -1.000000e+00  5.043157e+03  4.520137e+01
-3.600000e+01 -3.600000e+01   -1.000000e+00  5.059706e+03  3.911699e+00
-1.800000e+01 -3.600000e+01   -1.000000e+00  5.046849e+03  1.346062e+01
0.000000e+00 -3.600000e+01   -1.000000e+00  5.050000e+03  3.109571e+00
1.800000e+01 -3.600000e+01   -1.000000e+00  5.050000e+03  5.465232e+00
3.600000e+01 -3.600000e+01   -1.000000e+00  5.051279e+03  2.071734e+01
5.400000e+01 -3.600000e+01   -1.000000e+00  5.041350e+03  1.631735e+01
7.200000e+01 -3.600000e+01   -1.000000e+00  5.023250e+03  6.738792e+00
9.000000e+01 -3.600000e+01   -1.000000e+00  5.033564e+03  4.691891e+01
1.080000e+02 -3.600000e+01   -1.000000e+00  5.050386e+03  1.782524e+00
1.260000e+02 -3.600000e+01   -1.000000e+00  5.065835e+03  7.101579e+00
1.440000e+02 -3.600000e+01   -1.000000e+00  5.067157e+03  1.374168e+01
1.620000e+02 -3.600000e+01   -1.000000e+00  5.051321e+03  5.315785e+00
1.800000e+02 -3.600000e+01   -1.000000e+00  5.050000e+03  1.883638e+01
-1.800000e+02 -4.500000e+01   -1.000000e+00  5.050000e+03  1.552591e+00
-1.620000e+02 -4.500000e+01   -1.000000e+00  5.050000e+03  1.718225e+00
-1.440000e+02 -4.500000e+01   -1.000000e+00  5.050000e+03  3.277776e+01
-1.260000e+02 -4.500000e+01   -1.000000e+00  5.073405e+03  2.966961e+00
-1.080000e+02 -4.500000e+01   -1.000000e+00  5.073405e+03  4.700869e+00
-9.000000e+01 -4.500000e+01   -1.000000e+00  5.050230e+03  1.838083e+01
-7.200000e+01 -4.500000e+01   -1.000000e+00  5.060948e+03  1.085616e+01
-5.400000e+01 -4.500000e+01   -1.000000e+00  5.071151e+03  1.145861e+01
-3.600000e+01 -4.500000e+01   -1.000000e+00  5.058731e+03  4.122870e+01
-1.800000e+01 -4.500000e+01   -1.000000e+00  5.048299e+03  1.171163e+01
0.000000e+00 -4.500000e+01   -1.000000e+00  5.050000e+03  7.098902e+00
1.800000e+01 -4.500000e+01   -1.000000e+00  5.050000e+03  5.409887e+00
3.600000e+01 -4.500000e+01   -1.000000e+00  5.046106e+03  2.392433e+00
5.400000e+01 -4.500000e+01   -1.000000e+00  5.036045e+03  1.130546e+01
7.200000e+01 -4.500000e+01   -1.000000e+00  5.031579e+03  3.074027e+00
9.000000e+01 -4.500000e+01   -1.000000e+00  5.042988e+03  4.035121e+01
1.080000e+02 -4.500000e+01   -1.000000e+00  5.051348e+03  6.884248e+00
1.260000e+02 -4.500000e+01   -1.000000e+00  5.064517e+03  2.307555e+01
1.440000e+02 -4.500000e+01   -1.000000e+00  5.064517e+03  8.868412e+00
1.620000e+02 -4.500000e+01   -1.000000e+00  5.050000e+03  3.894534e+01
1.800000e+02 -4.500000e+01   -1.000000e+00  5.050000e+03  1.552591e+00
-1.800000e+02 -5.400000e+01   -1.000000e+00  5.050000e+03  2.156946e+01
-1.620000e+02 -5.400000e+01   -1.000000e+00  5.050000e+03  4.105538e+00
-1.440000e+02 -5.400000e+01   -1.000000e+00  5.050000e+03  1.301759e+00
-1.260000e+02 -5.400000e+01   -1.000000e+00  5.065013e+03  3.215577e+01
-1.080000e+02 -5.400000e+01   -1.000000e+00  5.065013e+03  1.116074e+00
-9.000000e+01 -5.400000e+01   -1.000000e+00  5.050946e+03  2.696248e+01
-7.200000e+01 -5.400000e+01   -1.000000e+00  5.075112e+03  6.242466e+00
-5.400000e+01 -5.400000e+01   -1.000000e+00  5.075991e+03  1.868973e+01
-3.600000e+01 -5.400000e+01   -1.000000e+00  5.052165e+03  1.794463e+01
-1.800000e+01 -5.400000e+01   -1.000000e+00  5.050340e+03  1.235480e+00
0.000000e+00 -5.400000e+01   -1.000000e+00  5.050000e+03  1.297851e+01
1.800000e+01 -5.400000e+01   -1.000000e+00  5.050000e+03  2.114691e+01
3.600000e+01 -5.400000e+01   -1.000000e+00  5.028985e+03  9.159236e+00
5.400000e+01 -5.400000e+01   -1.000000e+00  5.016173e+03  4.186978e+01
7.200000e+01 -5.400000e+01   -1.000000e+00  5.039417e+03  5.134770e+00
9.000000e+01 -5.400000e+01   -1.000000e+00  5.052229e+03  4.171407e+00
1.080000e+02 -5.400000e+01   -1.000000e+00  5.050000e+03  1.526246e+00
1.260000e+02 -5.400000e+01   -1.000000e+00  5.040179e+03  1.880564e+01
1.440000e+02 -5.400000e+01   -1.000000e+00  5.040179e+03  1.215245e+00
1.620000e+02 -5.400000e+01   -1.000000e+00  5.050000e+03  1.741973e+01
1.800000e+02 -5.400000e+01   -1.000000e+00  5.050000e+03  2.156946e+01
-1.800000e+02 -6.300000e+01   -1.000000e+00  5.050000e+03  8.413638e+00
-1.620000e+02 -6.300000e+01   -1.000000e+00  5.050000e+03  1.541718e+01
-1.440000e+02 -6.300000e+01   -1.000000e+00  5.050000e+03  1.046173e+00
-1.260000e+02 -6.300000e+01   -1.000000e+00  5.055837e+03  2.976190e+00
-1.080000e+02 -6.300000e+01   -1.000000e+00  5.052878e+03  5.896145e+00
-9.000000e+01 -6.300000e+01   -1.000000e+00  5.055094e+03  4.791092e+01
-7.200000e+01 -6.300000e+01   -1.000000e+00  5.065126e+03  1.285071e+01
-5.400000e+01 -6.300000e+01   -1.000000e+00  5.056207e+03  1.465047e+00
-3.600000e+01 -6.300000e+01   -1.000000e+00  5.060817e+03  1.353112e+01
-1.800000e+01 -6.300000e+01   -1.000000e+00  5.054918e+03  1.629830e+01
0.000000e+00 -6.300000e+01   -1.000000e+00  5.043236e+03  3.081211e+00
1.800000e+01 -6.300000e+01   -1.000000e+00  5.050000e+03  1.659522e+01
3.600000e+01 -6.300000e+01   -1.000000e+00  5.030382e+03  7.394366e+00
5.400000e+01 -6.300000e+01   -1.000000e+00  5.027785e+03  9.552409e+00
7.200000e+01 -6.300000e+01   -1.000000e+00  5.053037e+03  3.617595e+01
9.000000e+01 -6.300000e+01   -1.000000e+00  5.046756e+03  4.830031e+01
1.080000e+02 -6.300000e+01   -1.000000e+00  5.042602e+03  1.215514e+01
1.260000e+02 -6.300000e+01   -1.000000e+00  5.051960e+03  1.920118e+01
1.440000e+02 -6.300000e+01   -1.000000e+00  5.050480e+03  4.277897e+00
1.620000e+02 -6.300000e+01   -1.000000e+00  5.050000e+03  6.139371e+00
1.800000e+02 -6.300000e+01   -1.000000e+00  5.050000e+03  8.413638e+00
-1.800000e+02 -7.200000e+01   -1.000000e+00  5.055683e+03  1.118271e+01
-1.620000e+02 -7.200000e+01   -1.000000e+00  5.055494e+03  2.793675e+01
-1.440000e+02 -7.200000e+01   -1.000000e+00  5.043369e+03  3.404213e+01
-1.260000e+02 -7.200000e+01   -1.000000e+00  5.026081e+03  4.121991e+01
-1.080000e+02 -7.200000e+01   -1.000000e+00  5.029689e+03  2.197489e+01
-9.000000e+01 -7.200000e+01   -1.000000e+00  5.056969e+03  2.364199e+01
-7.200000e+01 -7.200000e+01   -1.000000e+00  5.070012e+03  6.666316e+00
-5.400000e+01 -7.200000e+01   -1.000000e+00  5.058696e+03  1.481670e+01
-3.600000e+01 -7.200000e+01   -1.000000e+00  5.045963e+03  4.348780e+01
-1.800000e+01 -7.200000e+01   -1.000000e+00  5.038109e+03  2.081497e+01
0.000000e+00 -7.200000e+01   -1.000000e+00  5.031916e+03  2.232691e+01
1.800000e+01 -7.200000e+01   -1.000000e+00  5.038823e+03  7.611796e+00
3.600000e+01 -7.200000e+01   -1.000000e+00  5.061786e+03  2.682532e+00
5.400000e+01 -7.200000e+01   -1.000000e+00  5.062733e+03  1.232950e+01
7.200000e+01 -7.200000e+01   -1.000000e+00  5.054037e+03  1.066602e+01
9.000000e+01 -7.200000e+01   -1.000000e+00  5.030196e+03  4.384762e+01
1.080000e+02 -7.200000e+01   -1.000000e+00  5.028711e+03  4.563198e+01
1.260000e+02 -7.200000e+01   -1.000000e+00  5.074450e+03  3.826383e+00
1.440000e+02 -7.200000e+01   -1.000000e+00  5.063562e+03  4.547783e+00
1.620000e+02 -7.200000e+01   -1.000000e+00  5.043180e+03  3.559749e+01
1.800000e+02 -7.200000e+01   -1.000000e+00  5.055683e+03  1.118271e+01
-1.800000e+02 -8.100000e+01   -1.000000e+00  5.061227e+03  9.153653e+00
-1.620000e+02 -8.100000e+01   -1.000000e+00  5.060853e+03  2.884780e+01
-1.440000e+02 -8.100000e+01   -1.000000e+00  5.036902e+03  3.227149e+01
-1.260000e+02 -8.100000e+01   -1.000000e+00  5.019313e+03  1.584558e+01
-1.080000e+02 -8.100000e+01   -1.000000e+00  5.035031e+03  9.868411e+00
-9.000000e+01 -8.100000e+01   -1.000000e+00  5.052629e+03  1.022233e+01
-7.200000e+01 -8.100000e+01   -1.000000e+00  5.050365e+03  4.130181e+01
-5.400000e+01 -8.100000e+01   -1.000000e+00  5.036794e+03  4.055112e+00
-3.600000e+01 -8.100000e+01   -1.000000e+00  5.054654e+03  4.195850e+01
-1.800000e+01 -8.100000e+01   -1.000000e+00  5.074492e+03  3.939235e+01
0.000000e+00 -8.100000e+01   -1.000000e+00  5.031644e+03  2.850584e+01
1.800000e+01 -8.100000e+01   -1.000000e+00  5.022387e+03  4.208196e+01
3.600000e+01 -8.100000e+01   -1.000000e+00  5.048380e+03  4.136677e+01
5.400000e+01 -8.100000e+01   -1.000000e+00  5.058175e+03  3.453521e+01
7.200000e+01 -8.100000e+01   -1.000000e+00  5.055911e+03  6.051416e+00
9.000000e+01 -8.100000e+01   -1.000000e+00  5.023261e+03  4.204597e+01
1.080000e+02 -8.100000e+01   -1.000000e+00  5.027531e+03  3.804191e+00
1.260000e+02 -8.100000e+01   -1.000000e+00  5.047380e+03  2.679219e+01
1.440000e+02 -8.100000e+01   -1.000000e+00  5.030166e+03  2.876640e+01
1.620000e+02 -8.100000e+01   -1.000000e+00  5.036528e+03  4.261850e+00
1.800000e+02 -8.100000e+01   -1.000000e+00  5.061227e+03  9.153653e+00