VARIABLES="Lon", "Lat",  "Cutoff Rigidity [GV] (s=0)", "Injected Particle Number (s=0)", "Max energy injected particles (s=0)"
ZONE I=151, J=151, DATAPACKING=POINT
-1.800000e+02 9.000000e+01   4.486527e-01  2.000000e+02  1.359678e+04
-1.776000e+02 9.000000e+01   4.486527e-01  2.000000e+02  9.275899e+02
-1.752000e+02 9.000000e+01   4.528661e-01  2.000000e+02  6.539383e+02
-1.728000e+02 9.000000e+01   4.566125e-01  2.000000e+02  5.825677e+02
-1.704000e+02 9.000000e+01   4.566125e-01  2.000000e+02  1.213212e+02
-1.680000e+02 9.000000e+01   4.624927e-01  2.000000e+02  1.157940e+03
-1.656000e+02 9.000000e+01   4.624927e-01  2.000000e+02  1.425555e+03
-1.632000e+02 9.000000e+01   4.458318e-01  2.000000e+02  3.204965e+03
-1.608000e+02 9.000000e+01   4.458318e-01  2.000000e+02  1.422128e+03
-1.584000e+02 9.000000e+01   4.461576e-01  2.000000e+02  1.896368e+03
-1.560000e+02 9.000000e+01   4.461576e-01  2.000000e+02  1.959764e+02
-1.536000e+02 9.000000e+01   4.829244e-01  2.000000e+02  7.538567e+03
-1.512000e+02 9.000000e+01   4.829244e-01  2.000000e+02  4.063963e+02
-1.488000e+02 9.000000e+01   4.573244e-01  2.000000e+02  6.717257e+03
-1.464000e+02 9.000000e+01   4.540728e-01  2.000000e+02  1.803830e+03
-1.440000e+02 9.000000e+01   4.540728e-01  2.000000e+02  5.575985e+03
-1.416000e+02 9.000000e+01   4.562278e-01  2.000000e+02  7.022517e+03
-1.392000e+02 9.000000e+01   4.732447e-01  2.000000e+02  2.315472e+03
-1.368000e+02 9.000000e+01   4.732447e-01  2.000000e+02  1.104166e+02
-1.344000e+02 9.000000e+01   4.723772e-01  2.000000e+02  1.957968e+04
-1.320000e+02 9.000000e+01   4.481672e-01  2.000000e+02  6.403604e+03
-1.296000e+02 9.000000e+01   4.481672e-01  2.000000e+02  2.697574e+02
-1.272000e+02 9.000000e+01   4.566161e-01  2.000000e+02  3.780580e+02
-1.248000e+02 9.000000e+01   4.692431e-01  2.000000e+02  1.787963e+02
-1.224000e+02 9.000000e+01   4.692431e-01  2.000000e+02  2.140740e+03
-1.200000e+02 9.000000e+01   5.144495e-01  2.000000e+02  2.013490e+02
-1.176000e+02 9.000000e+01   5.256352e-01  2.000000e+02  1.139490e+04
-1.152000e+02 9.000000e+01   4.692002e-01  2.000000e+02  3.819349e+02
-1.128000e+02 9.000000e+01   4.692002e-01  2.000000e+02  5.130385e+03
-1.104000e+02 9.000000e+01   4.831231e-01  2.000000e+02  7.044632e+03
-1.080000e+02 9.000000e+01   4.456728e-01  2.000000e+02  1.259082e+02
-1.056000e+02 9.000000e+01   4.456728e-01  2.000000e+02  3.114673e+03
-1.032000e+02 9.000000e+01   4.630870e-01  2.000000e+02  1.715134e+03
-1.008000e+02 9.000000e+01   4.431759e-01  2.000000e+02  1.153403e+04
-9.840000e+01 9.000000e+01   4.431759e-01  2.000000e+02  5.086944e+03
-9.600000e+01 9.000000e+01   4.495432e-01  2.000000e+02  1.624122e+02
-9.360000e+01 9.000000e+01   4.474640e-01  2.000000e+02  8.761377e+02
-9.120000e+01 9.000000e+01   4.474640e-01  2.005000e+02  1.362039e+04
-8.880000e+01 9.000000e+01   4.610300e-01  2.005000e+02  1.239633e+03
-8.640000e+01 9.000000e+01   4.446579e-01  2.000000e+02  4.292563e+02
-8.400000e+01 9.000000e+01   4.446579e-01  2.000000e+02  3.321220e+02
-8.160000e+01 9.000000e+01   4.496709e-01  2.000000e+02  1.341765e+02
-7.920000e+01 9.000000e+01   4.496709e-01  2.000000e+02  1.709543e+03
-7.680000e+01 9.000000e+01   4.642313e-01  2.000000e+02  4.143800e+03
-7.440000e+01 9.000000e+01   4.623450e-01  2.000000e+02  9.801170e+02
-7.200000e+01 9.000000e+01   4.452242e-01  2.000000e+02  5.061070e+02
-6.960000e+01 9.000000e+01   4.452242e-01  2.000000e+02  1.830850e+03
-6.720000e+01 9.000000e+01   4.433830e-01  2.000000e+02  4.787344e+03
-6.480000e+01 9.000000e+01   4.433830e-01  2.000000e+02  1.219948e+02
-6.240000e+01 9.000000e+01   5.288432e-01  2.000000e+02  8.366074e+03
-6.000000e+01 9.000000e+01   4.434203e-01  2.000000e+02  4.283562e+02
-5.760000e+01 9.000000e+01   4.434203e-01  2.000000e+02  4.001592e+03
-5.520000e+01 9.000000e+01   4.446093e-01  2.000000e+02  2.225117e+03
-5.280000e+01 9.000000e+01   4.446093e-01  2.000000e+02  7.680715e+03
-5.040000e+01 9.000000e+01   4.742012e-01  2.000000e+02  1.644602e+04
-4.800000e+01 9.000000e+01   4.443304e-01  2.000000e+02  6.838477e+02
-4.560000e+01 9.000000e+01   4.443304e-01  2.000000e+02  6.420679e+03
-4.320000e+01 9.000000e+01   4.504507e-01  2.000000e+02  6.561910e+02
-4.080000e+01 9.000000e+01   4.571059e-01  2.000000e+02  1.710146e+03
-3.840000e+01 9.000000e+01   4.462181e-01  2.000000e+02  1.262397e+04
-3.600000e+01 9.000000e+01   4.462181e-01  2.000000e+02  1.573303e+03
-3.360000e+01 9.000000e+01   4.465798e-01  2.000000e+02  1.155624e+03
-3.120000e+01 9.000000e+01   4.898740e-01  2.000000e+02  2.235757e+03
-2.880000e+01 9.000000e+01   4.571671e-01  2.000000e+02  1.554261e+04
-2.640000e+01 9.000000e+01   4.571671e-01  2.000000e+02  8.736773e+03
-2.400000e+01 9.000000e+01   4.533967e-01  2.000000e+02  1.535832e+02
-2.160000e+01 9.000000e+01   4.533967e-01  2.000000e+02  7.496446e+02
-1.920000e+01 9.000000e+01   4.839927e-01  2.000000e+02  1.473333e+03
-1.680000e+01 9.000000e+01   4.451546e-01  2.000000e+02  1.823617e+04
-1.440000e+01 9.000000e+01   4.451546e-01  2.000000e+02  1.491026e+02
-1.200000e+01 9.000000e+01   4.561065e-01  2.000000e+02  9.246522e+03
-9.600000e+00 9.000000e+01   4.484839e-01  2.000000e+02  1.160459e+02
-7.200000e+00 9.000000e+01   4.484839e-01  2.000000e+02  5.899102e+02
-4.800000e+00 9.000000e+01   4.518268e-01  2.000000e+02  3.383123e+02
-2.400000e+00 9.000000e+01   4.459221e-01  2.000000e+02  2.644623e+03
0.000000e+00 9.000000e+01   4.459221e-01  2.000000e+02  7.662330e+02
2.400000e+00 9.000000e+01   4.431033e-01  2.000000e+02  6.026755e+03
4.800000e+00 9.000000e+01   4.431033e-01  2.000000e+02  6.705544e+02
7.200000e+00 9.000000e+01   4.472273e-01  2.000000e+02  1.875454e+03
9.600000e+00 9.000000e+01   4.655191e-01  2.000000e+02  1.409909e+02
1.200000e+01 9.000000e+01   4.512118e-01  2.000000e+02  9.272957e+02
1.440000e+01 9.000000e+01   4.512118e-01  2.000000e+02  3.171268e+02
1.680000e+01 9.000000e+01   4.478646e-01  2.000000e+02  2.784451e+02
1.920000e+01 9.000000e+01   4.478646e-01  2.000000e+02  1.694247e+02
2.160000e+01 9.000000e+01   4.608983e-01  2.000000e+02  8.220351e+02
2.400000e+01 9.000000e+01   4.694379e-01  2.000000e+02  5.630937e+03
2.640000e+01 9.000000e+01   4.512539e-01  2.000000e+02  7.931597e+02
2.880000e+01 9.000000e+01   4.485878e-01  2.000000e+02  2.179872e+02
3.120000e+01 9.000000e+01   4.485878e-01  2.000000e+02  1.324332e+03
3.360000e+01 9.000000e+01   4.771875e-01  2.000000e+02  3.265657e+02
3.600000e+01 9.000000e+01   4.507323e-01  2.000000e+02  1.564493e+02
3.840000e+01 9.000000e+01   4.439077e-01  2.000000e+02  1.690933e+02
4.080000e+01 9.000000e+01   4.439077e-01  2.000000e+02  6.404817e+03
4.320000e+01 9.000000e+01   4.441645e-01  2.000000e+02  2.254516e+02
4.560000e+01 9.000000e+01   4.502278e-01  2.000000e+02  1.615517e+03
4.800000e+01 9.000000e+01   4.731356e-01  2.000000e+02  2.331878e+02
5.040000e+01 9.000000e+01   4.677378e-01  2.000000e+02  4.021896e+03
5.280000e+01 9.000000e+01   4.677378e-01  2.000000e+02  8.840853e+02
5.520000e+01 9.000000e+01   4.596394e-01  2.000000e+02  4.322077e+02
5.760000e+01 9.000000e+01   4.480804e-01  2.000000e+02  8.828457e+03
6.000000e+01 9.000000e+01   4.480804e-01  2.000000e+02  1.485528e+04
6.240000e+01 9.000000e+01   4.562524e-01  2.000000e+02  2.460371e+02
6.480000e+01 9.000000e+01   4.474759e-01  2.000000e+02  3.105733e+02
6.720000e+01 9.000000e+01   4.474759e-01  2.000000e+02  1.855206e+04
6.960000e+01 9.000000e+01   4.759877e-01  2.000000e+02  1.914177e+03
7.200000e+01 9.000000e+01   4.439574e-01  2.000000e+02  1.271772e+04
7.440000e+01 9.000000e+01   4.439574e-01  2.000000e+02  1.627107e+03
7.680000e+01 9.000000e+01   4.803451e-01  2.000000e+02  4.582025e+03
7.920000e+01 9.000000e+01   4.703284e-01  2.000000e+02  1.069028e+04
8.160000e+01 9.000000e+01   4.439207e-01  2.000000e+02  1.045956e+03
8.400000e+01 9.000000e+01   4.439207e-01  2.000000e+02  4.417546e+03
8.640000e+01 9.000000e+01   4.639589e-01  2.000000e+02  1.474963e+03
8.880000e+01 9.000000e+01   4.474603e-01  2.015000e+02  2.104466e+03
9.120000e+01 9.000000e+01   4.474603e-01  2.015000e+02  3.198125e+03
9.360000e+01 9.000000e+01   4.447650e-01  2.000000e+02  1.263461e+02
9.600000e+01 9.000000e+01   4.447650e-01  2.000000e+02  1.933224e+03
9.840000e+01 9.000000e+01   4.458206e-01  2.000000e+02  4.428845e+02
1.008000e+02 9.000000e+01   4.458206e-01  2.000000e+02  9.818669e+02
1.032000e+02 9.000000e+01   4.461469e-01  2.000000e+02  1.800830e+03
1.056000e+02 9.000000e+01   4.469285e-01  2.000000e+02  2.806448e+02
1.080000e+02 9.000000e+01   4.606348e-01  2.000000e+02  2.029416e+02
1.104000e+02 9.000000e+01   4.606348e-01  2.000000e+02  3.885918e+02
1.128000e+02 9.000000e+01   4.552057e-01  2.000000e+02  4.786526e+03
1.152000e+02 9.000000e+01   4.539252e-01  2.000000e+02  3.774290e+03
1.176000e+02 9.000000e+01   4.539252e-01  2.000000e+02  8.237658e+03
1.200000e+02 9.000000e+01   4.693780e-01  2.000000e+02  7.785566e+02
1.224000e+02 9.000000e+01   4.474787e-01  2.000000e+02  3.522304e+03
1.248000e+02 9.000000e+01   4.436971e-01  2.000000e+02  6.072833e+03
1.272000e+02 9.000000e+01   4.436971e-01  2.000000e+02  2.908090e+03
1.296000e+02 9.000000e+01   4.886552e-01  2.000000e+02  1.456943e+04
1.320000e+02 9.000000e+01   4.733809e-01  2.000000e+02  2.718193e+02
1.344000e+02 9.000000e+01   4.733809e-01  2.000000e+02  5.617976e+02
1.368000e+02 9.000000e+01   4.492349e-01  2.000000e+02  4.757703e+02
1.392000e+02 9.000000e+01   4.492349e-01  2.000000e+02  1.162297e+04
1.416000e+02 9.000000e+01   4.495759e-01  2.000000e+02  6.012815e+02
1.440000e+02 9.000000e+01   4.500561e-01  2.000000e+02  7.557015e+03
1.464000e+02 9.000000e+01   4.500561e-01  2.000000e+02  1.844208e+03
1.488000e+02 9.000000e+01   4.757656e-01  2.000000e+02  2.524746e+03
1.512000e+02 9.000000e+01   4.881234e-01  2.000000e+02  1.329396e+04
1.536000e+02 9.000000e+01   5.064496e-01  2.000000e+02  8.693968e+03
1.560000e+02 9.000000e+01   4.520429e-01  2.000000e+02  2.937397e+03
1.584000e+02 9.000000e+01   4.455193e-01  2.000000e+02  4.718919e+02
1.608000e+02 9.000000e+01   4.455193e-01  2.000000e+02  1.847973e+04
1.632000e+02 9.000000e+01   4.519430e-01  2.000000e+02  2.647848e+03
1.656000e+02 9.000000e+01   4.519430e-01  2.000000e+02  6.397725e+03
1.680000e+02 9.000000e+01   4.447418e-01  2.000000e+02  1.678029e+03
1.704000e+02 9.000000e+01   4.447418e-01  2.000000e+02  5.184220e+02
1.728000e+02 9.000000e+01   4.575566e-01  2.000000e+02  1.229525e+03
1.752000e+02 9.000000e+01   4.496212e-01  2.000000e+02  4.302063e+03
1.776000e+02 9.000000e+01   4.496212e-01  2.000000e+02  6.209568e+03
1.800000e+02 9.000000e+01   4.486527e-01  2.000000e+02  1.359678e+04
-1.800000e+02 8.063321e+01   4.486527e-01  2.000000e+02  2.079311e+03
-1.776000e+02 8.063321e+01   4.486527e-01  2.000000e+02  1.132470e+03
-1.752000e+02 8.063321e+01   4.528661e-01  2.000000e+02  9.510614e+03
-1.728000e+02 8.063321e+01   4.566125e-01  2.000000e+02  6.399957e+02
-1.704000e+02 8.063321e+01   4.566125e-01  2.000000e+02  9.065062e+02
-1.680000e+02 8.063321e+01   4.585609e-01  2.000000e+02  4.964700e+02
-1.656000e+02 8.063321e+01   4.624927e-01  2.000000e+02  3.635321e+02
-1.632000e+02 8.063321e+01   4.458318e-01  2.000000e+02  4.061692e+03
-1.608000e+02 8.063321e+01   4.458318e-01  2.000000e+02  3.268254e+02
-1.584000e+02 8.063321e+01   4.461576e-01  2.000000e+02  2.323981e+03
-1.560000e+02 8.063321e+01   4.461576e-01  2.000000e+02  7.685560e+03
-1.536000e+02 8.063321e+01   4.829244e-01  2.000000e+02  3.321929e+03
-1.512000e+02 8.063321e+01   4.829244e-01  2.000000e+02  4.429063e+02
-1.488000e+02 8.063321e+01   4.573244e-01  2.000000e+02  3.147568e+03
-1.464000e+02 8.063321e+01   4.502468e-01  2.000000e+02  6.247029e+02
-1.440000e+02 8.063321e+01   4.502468e-01  2.000000e+02  6.078886e+02
-1.416000e+02 8.063321e+01   4.562278e-01  2.000000e+02  1.052428e+03
-1.392000e+02 8.063321e+01   4.629491e-01  2.000000e+02  1.881476e+04
-1.368000e+02 8.063321e+01   4.629491e-01  2.000000e+02  8.380156e+02
-1.344000e+02 8.063321e+01   4.723772e-01  2.000000e+02  4.573847e+02
-1.320000e+02 8.063321e+01   4.481672e-01  2.000000e+02  2.968815e+03
-1.296000e+02 8.063321e+01   4.481672e-01  2.000000e+02  7.534568e+03
-1.272000e+02 8.063321e+01   4.566161e-01  2.000000e+02  1.086720e+04
-1.248000e+02 8.063321e+01   4.692431e-01  2.000000e+02  1.946254e+04
-1.224000e+02 8.063321e+01   4.602230e-01  2.000000e+02  6.908520e+02
-1.200000e+02 8.063321e+01   4.602230e-01  2.000000e+02  1.727258e+03
-1.176000e+02 8.063321e+01   4.886730e-01  2.000000e+02  1.539859e+03
-1.152000e+02 8.063321e+01   4.692002e-01  2.000000e+02  8.523236e+02
-1.128000e+02 8.063321e+01   4.692002e-01  2.000000e+02  2.674976e+02
-1.104000e+02 8.063321e+01   4.831231e-01  2.000000e+02  3.854814e+02
-1.080000e+02 8.063321e+01   4.456728e-01  2.000000e+02  5.883827e+02
-1.056000e+02 8.063321e+01   4.456728e-01  2.000000e+02  8.371454e+02
-1.032000e+02 8.063321e+01   4.556734e-01  2.000000e+02  3.567679e+02
-1.008000e+02 8.063321e+01   4.431759e-01  2.000000e+02  4.008902e+02
-9.840000e+01 8.063321e+01   4.431759e-01  2.000000e+02  2.887196e+02
-9.600000e+01 8.063321e+01   4.495432e-01  2.000000e+02  5.317208e+02
-9.360000e+01 8.063321e+01   4.433534e-01  2.000000e+02  4.924614e+03
-9.120000e+01 8.063321e+01   4.433534e-01  2.000000e+02  1.296495e+04
-8.880000e+01 8.063321e+01   4.468965e-01  2.000000e+02  1.695069e+03
-8.640000e+01 8.063321e+01   4.446579e-01  2.000000e+02  2.481026e+02
-8.400000e+01 8.063321e+01   4.446579e-01  2.000000e+02  1.558290e+02
-8.160000e+01 8.063321e+01   4.448005e-01  2.000000e+02  1.089224e+03
-7.920000e+01 8.063321e+01   4.440244e-01  2.000000e+02  6.761455e+03
-7.680000e+01 8.063321e+01   4.440244e-01  2.000000e+02  3.071316e+03
-7.440000e+01 8.063321e+01   4.471205e-01  2.000000e+02  7.245187e+02
-7.200000e+01 8.063321e+01   4.452242e-01  2.000000e+02  1.496032e+04
-6.960000e+01 8.063321e+01   4.446055e-01  2.000000e+02  6.557380e+02
-6.720000e+01 8.063321e+01   4.433830e-01  2.000000e+02  1.234673e+03
-6.480000e+01 8.063321e+01   4.433830e-01  2.000000e+02  1.483965e+02
-6.240000e+01 8.063321e+01   4.495488e-01  2.000000e+02  5.920179e+03
-6.000000e+01 8.063321e+01   4.434203e-01  2.000000e+02  2.917195e+03
-5.760000e+01 8.063321e+01   4.434203e-01  2.000000e+02  3.702487e+02
-5.520000e+01 8.063321e+01   4.446093e-01  2.000000e+02  1.075636e+04
-5.280000e+01 8.063321e+01   4.446093e-01  2.000000e+02  3.404379e+03
-5.040000e+01 8.063321e+01   4.562389e-01  2.000000e+02  6.768381e+02
-4.800000e+01 8.063321e+01   4.443304e-01  2.000000e+02  2.438877e+03
-4.560000e+01 8.063321e+01   4.443304e-01  2.000000e+02  4.722358e+02
-4.320000e+01 8.063321e+01   4.504507e-01  2.000000e+02  1.300574e+04
-4.080000e+01 8.063321e+01   4.530957e-01  2.000000e+02  1.795573e+03
-3.840000e+01 8.063321e+01   4.462181e-01  2.000000e+02  3.330311e+02
-3.600000e+01 8.063321e+01   4.462181e-01  2.000000e+02  2.344418e+03
-3.360000e+01 8.063321e+01   4.465798e-01  2.000000e+02  6.839572e+02
-3.120000e+01 8.063321e+01   4.475129e-01  2.000000e+02  1.439115e+03
-2.880000e+01 8.063321e+01   4.571671e-01  2.000000e+02  9.123658e+03
-2.640000e+01 8.063321e+01   4.571671e-01  2.000000e+02  1.046989e+04
-2.400000e+01 8.063321e+01   4.471499e-01  2.000000e+02  7.439695e+02
-2.160000e+01 8.063321e+01   4.471499e-01  2.000000e+02  8.877366e+03
-1.920000e+01 8.063321e+01   4.839927e-01  2.000000e+02  3.888472e+02
-1.680000e+01 8.063321e+01   4.451546e-01  2.000000e+02  1.140598e+02
-1.440000e+01 8.063321e+01   4.451546e-01  2.000000e+02  1.139899e+04
-1.200000e+01 8.063321e+01   4.504926e-01  2.000000e+02  1.294049e+03
-9.600000e+00 8.063321e+01   4.447559e-01  2.000000e+02  4.100407e+02
-7.200000e+00 8.063321e+01   4.444796e-01  2.000000e+02  4.483074e+03
-4.800000e+00 8.063321e+01   4.444796e-01  2.000000e+02  7.593352e+02
-2.400000e+00 8.063321e+01   4.459221e-01  2.000000e+02  2.639085e+03
0.000000e+00 8.063321e+01   4.459221e-01  2.000000e+02  7.463173e+02
2.400000e+00 8.063321e+01   4.431033e-01  2.000000e+02  1.882824e+03
4.800000e+00 8.063321e+01   4.431033e-01  2.000000e+02  1.840411e+02
7.200000e+00 8.063321e+01   4.463501e-01  2.000000e+02  7.220336e+03
9.600000e+00 8.063321e+01   4.463501e-01  2.000000e+02  1.144214e+03
1.200000e+01 8.063321e+01   4.512118e-01  2.000000e+02  1.323388e+03
1.440000e+01 8.063321e+01   4.512118e-01  2.000000e+02  3.027348e+02
1.680000e+01 8.063321e+01   4.478646e-01  2.000000e+02  1.763482e+04
1.920000e+01 8.063321e+01   4.478646e-01  2.000000e+02  1.832851e+02
2.160000e+01 8.063321e+01   4.442477e-01  2.000000e+02  3.602776e+03
2.400000e+01 8.063321e+01   4.442477e-01  2.000000e+02  1.054327e+02
2.640000e+01 8.063321e+01   4.512539e-01  2.000000e+02  2.047112e+02
2.880000e+01 8.063321e+01   4.485878e-01  2.000000e+02  1.433160e+04
3.120000e+01 8.063321e+01   4.485878e-01  2.000000e+02  2.447593e+02
3.360000e+01 8.063321e+01   4.471398e-01  2.000000e+02  4.155966e+02
3.600000e+01 8.063321e+01   4.471398e-01  2.000000e+02  1.884014e+04
3.840000e+01 8.063321e+01   4.439077e-01  2.000000e+02  8.365244e+03
4.080000e+01 8.063321e+01   4.439077e-01  2.000000e+02  5.600166e+02
4.320000e+01 8.063321e+01   4.441645e-01  2.000000e+02  1.297732e+02
4.560000e+01 8.063321e+01   4.502278e-01  2.000000e+02  1.876348e+03
4.800000e+01 8.063321e+01   4.731356e-01  2.000000e+02  1.167550e+02
5.040000e+01 8.063321e+01   4.484417e-01  2.000000e+02  7.625079e+03
5.280000e+01 8.063321e+01   4.484417e-01  2.000000e+02  4.706264e+03
5.520000e+01 8.063321e+01   4.596394e-01  2.000000e+02  2.312757e+02
5.760000e+01 8.063321e+01   4.480804e-01  2.000000e+02  1.307324e+02
6.000000e+01 8.063321e+01   4.480804e-01  2.000000e+02  2.858476e+03
6.240000e+01 8.063321e+01   4.562524e-01  2.000000e+02  1.902359e+04
6.480000e+01 8.063321e+01   4.474759e-01  2.000000e+02  1.056520e+03
6.720000e+01 8.063321e+01   4.443955e-01  2.000000e+02  5.158371e+03
6.960000e+01 8.063321e+01   4.443955e-01  2.000000e+02  1.429672e+02
7.200000e+01 8.063321e+01   4.439574e-01  2.000000e+02  8.615503e+03
7.440000e+01 8.063321e+01   4.439574e-01  2.000000e+02  7.013169e+02
7.680000e+01 8.063321e+01   4.433206e-01  2.000000e+02  4.124671e+02
7.920000e+01 8.063321e+01   4.433206e-01  2.000000e+02  4.841889e+03
8.160000e+01 8.063321e+01   4.439207e-01  2.000000e+02  2.301227e+03
8.400000e+01 8.063321e+01   4.439207e-01  2.000000e+02  2.777777e+02
8.640000e+01 8.063321e+01   4.639589e-01  2.000000e+02  1.610261e+02
8.880000e+01 8.063321e+01   4.474603e-01  2.025000e+02  1.496733e+04
9.120000e+01 8.063321e+01   4.454090e-01  2.025000e+02  5.103171e+02
9.360000e+01 8.063321e+01   4.447650e-01  2.000000e+02  3.039668e+02
9.600000e+01 8.063321e+01   4.447650e-01  2.000000e+02  5.611398e+03
9.840000e+01 8.063321e+01   4.458206e-01  2.000000e+02  7.928438e+02
1.008000e+02 8.063321e+01   4.458206e-01  2.000000e+02  6.435720e+02
1.032000e+02 8.063321e+01   4.461469e-01  2.000000e+02  4.613587e+02
1.056000e+02 8.063321e+01   4.469285e-01  2.000000e+02  1.027347e+02
1.080000e+02 8.063321e+01   4.606348e-01  2.000000e+02  6.036329e+03
1.104000e+02 8.063321e+01   4.606348e-01  2.000000e+02  2.181681e+03
1.128000e+02 8.063321e+01   4.444299e-01  2.000000e+02  3.628431e+03
1.152000e+02 8.063321e+01   4.444299e-01  2.000000e+02  6.972970e+03
1.176000e+02 8.063321e+01   4.539252e-01  2.000000e+02  1.167428e+03
1.200000e+02 8.063321e+01   4.555574e-01  2.000000e+02  3.359414e+03
1.224000e+02 8.063321e+01   4.474787e-01  2.000000e+02  8.300736e+02
1.248000e+02 8.063321e+01   4.436971e-01  2.000000e+02  7.149381e+02
1.272000e+02 8.063321e+01   4.436971e-01  2.000000e+02  3.354446e+02
1.296000e+02 8.063321e+01   4.541758e-01  2.000000e+02  5.387559e+03
1.320000e+02 8.063321e+01   4.464078e-01  2.000000e+02  6.136691e+02
1.344000e+02 8.063321e+01   4.464078e-01  2.000000e+02  2.604709e+02
1.368000e+02 8.063321e+01   4.478713e-01  2.000000e+02  1.101906e+03
1.392000e+02 8.063321e+01   4.478713e-01  2.000000e+02  1.979605e+04
1.416000e+02 8.063321e+01   4.495759e-01  2.000000e+02  5.698415e+03
1.440000e+02 8.063321e+01   4.500561e-01  2.000000e+02  1.011853e+03
1.464000e+02 8.063321e+01   4.500561e-01  2.000000e+02  2.962268e+03
1.488000e+02 8.063321e+01   4.442440e-01  2.000000e+02  1.243670e+02
1.512000e+02 8.063321e+01   4.442440e-01  2.000000e+02  6.390349e+03
1.536000e+02 8.063321e+01   4.465382e-01  2.000000e+02  2.268937e+03
1.560000e+02 8.063321e+01   4.465382e-01  2.000000e+02  1.227576e+04
1.584000e+02 8.063321e+01   4.455193e-01  2.000000e+02  1.530351e+03
1.608000e+02 8.063321e+01   4.455193e-01  2.000000e+02  1.164479e+04
1.632000e+02 8.063321e+01   4.435723e-01  2.000000e+02  8.112376e+03
1.656000e+02 8.063321e+01   4.435723e-01  2.000000e+02  1.374132e+03
1.680000e+02 8.063321e+01   4.447418e-01  2.000000e+02  1.791638e+03
1.704000e+02 8.063321e+01   4.447418e-01  2.000000e+02  1.147697e+03
1.728000e+02 8.063321e+01   4.511597e-01  2.000000e+02  2.304730e+03
1.752000e+02 8.063321e+01   4.496212e-01  2.000000e+02  3.831520e+02
1.776000e+02 8.063321e+01   4.496212e-01  2.000000e+02  3.720297e+02
1.800000e+02 8.063321e+01   4.486527e-01  2.000000e+02  2.079311e+03
-1.800000e+02 7.673852e+01   4.495002e-01  2.000000e+02  2.784142e+03
-1.776000e+02 7.673852e+01   4.495002e-01  2.000000e+02  1.093535e+04
-1.752000e+02 7.673852e+01   4.523765e-01  2.000000e+02  6.631609e+02
-1.728000e+02 7.673852e+01   4.543214e-01  2.000000e+02  1.838799e+04
-1.704000e+02 7.673852e+01   4.585609e-01  2.000000e+02  6.465679e+02
-1.680000e+02 7.673852e+01   4.475792e-01  2.000000e+02  7.770209e+03
-1.656000e+02 7.673852e+01   4.642019e-01  2.000000e+02  4.006423e+02
-1.632000e+02 7.673852e+01   4.645558e-01  2.000000e+02  1.529431e+03
-1.608000e+02 7.673852e+01   4.690776e-01  2.000000e+02  4.205966e+03
-1.584000e+02 7.673852e+01   4.561903e-01  2.000000e+02  1.695900e+03
-1.560000e+02 7.673852e+01   4.654417e-01  2.000000e+02  3.390414e+03
-1.536000e+02 7.673852e+01   4.609629e-01  2.000000e+02  6.226313e+02
-1.512000e+02 7.673852e+01   4.974436e-01  2.000000e+02  7.246574e+02
-1.488000e+02 7.673852e+01   4.738741e-01  2.000000e+02  1.821633e+03
-1.464000e+02 7.673852e+01   4.502468e-01  2.000000e+02  4.279916e+03
-1.440000e+02 7.673852e+01   4.502468e-01  2.000000e+02  1.558802e+03
-1.416000e+02 7.673852e+01   4.896883e-01  2.000000e+02  1.538307e+02
-1.392000e+02 7.673852e+01   4.629491e-01  2.000000e+02  1.840026e+03
-1.368000e+02 7.673852e+01   4.439944e-01  2.000000e+02  7.939677e+03
-1.344000e+02 7.673852e+01   4.576543e-01  2.000000e+02  1.352396e+03
-1.320000e+02 7.673852e+01   4.958602e-01  2.000000e+02  1.627773e+02
-1.296000e+02 7.673852e+01   4.593566e-01  2.000000e+02  1.126486e+04
-1.272000e+02 7.673852e+01   4.614474e-01  2.000000e+02  3.486999e+02
-1.248000e+02 7.673852e+01   4.776219e-01  2.000000e+02  2.906350e+03
-1.224000e+02 7.673852e+01   4.602230e-01  2.000000e+02  4.272348e+03
-1.200000e+02 7.673852e+01   4.602230e-01  2.000000e+02  1.606417e+02
-1.176000e+02 7.673852e+01   4.886730e-01  2.000000e+02  1.080630e+03
-1.152000e+02 7.673852e+01   4.814908e-01  2.000000e+02  4.959555e+03
-1.128000e+02 7.673852e+01   4.530236e-01  2.000000e+02  6.018437e+03
-1.104000e+02 7.673852e+01   5.112443e-01  2.000000e+02  5.533819e+02
-1.080000e+02 7.673852e+01   4.813251e-01  2.000000e+02  5.758947e+03
-1.056000e+02 7.673852e+01   4.556734e-01  2.000000e+02  1.366352e+03
-1.032000e+02 7.673852e+01   4.556734e-01  2.000000e+02  2.422033e+02
-1.008000e+02 7.673852e+01   4.597061e-01  2.000000e+02  1.423827e+04
-9.840000e+01 7.673852e+01   5.264147e-01  2.000000e+02  5.949151e+03
-9.600000e+01 7.673852e+01   4.747201e-01  2.000000e+02  1.108286e+02
-9.360000e+01 7.673852e+01   4.433534e-01  2.000000e+02  5.156052e+02
-9.120000e+01 7.673852e+01   4.433534e-01  2.002500e+02  2.591244e+03
-8.880000e+01 7.673852e+01   4.468965e-01  2.002500e+02  1.760419e+03
-8.640000e+01 7.673852e+01   4.468965e-01  2.000000e+02  1.294641e+03
-8.400000e+01 7.673852e+01   4.499123e-01  2.000000e+02  5.704410e+02
-8.160000e+01 7.673852e+01   4.448005e-01  2.000000e+02  2.670251e+02
-7.920000e+01 7.673852e+01   4.440244e-01  2.000000e+02  1.775320e+03
-7.680000e+01 7.673852e+01   4.440244e-01  2.000000e+02  2.341920e+03
-7.440000e+01 7.673852e+01   4.471205e-01  2.000000e+02  1.291480e+02
-7.200000e+01 7.673852e+01   4.785026e-01  2.000000e+02  2.363686e+02
-6.960000e+01 7.673852e+01   4.446055e-01  2.000000e+02  6.173720e+03
-6.720000e+01 7.673852e+01   4.446055e-01  2.000000e+02  1.508657e+02
-6.480000e+01 7.673852e+01   4.498797e-01  2.000000e+02  8.085539e+03
-6.240000e+01 7.673852e+01   4.495488e-01  2.000000e+02  9.869286e+03
-6.000000e+01 7.673852e+01   4.440310e-01  2.000000e+02  1.886567e+03
-5.760000e+01 7.673852e+01   4.440310e-01  2.000000e+02  1.837769e+04
-5.520000e+01 7.673852e+01   4.704537e-01  2.000000e+02  3.267709e+03
-5.280000e+01 7.673852e+01   4.459993e-01  2.000000e+02  8.618836e+02
-5.040000e+01 7.673852e+01   4.459993e-01  2.000000e+02  4.608946e+02
-4.800000e+01 7.673852e+01   4.510195e-01  2.000000e+02  3.334524e+02
-4.560000e+01 7.673852e+01   4.510195e-01  2.000000e+02  2.009584e+02
-4.320000e+01 7.673852e+01   4.802795e-01  2.000000e+02  3.748913e+02
-4.080000e+01 7.673852e+01   4.530957e-01  2.000000e+02  1.462041e+03
-3.840000e+01 7.673852e+01   4.530957e-01  2.000000e+02  2.156599e+03
-3.600000e+01 7.673852e+01   4.637900e-01  2.000000e+02  1.119185e+03
-3.360000e+01 7.673852e+01   4.475129e-01  2.000000e+02  3.246070e+02
-3.120000e+01 7.673852e+01   4.475129e-01  2.000000e+02  8.730043e+03
-2.880000e+01 7.673852e+01   4.614152e-01  2.000000e+02  3.529807e+03
-2.640000e+01 7.673852e+01   4.614152e-01  2.000000e+02  1.060079e+03
-2.400000e+01 7.673852e+01   4.471499e-01  2.000000e+02  1.501206e+03
-2.160000e+01 7.673852e+01   4.471499e-01  2.000000e+02  1.269665e+02
-1.920000e+01 7.673852e+01   4.873900e-01  2.000000e+02  1.971095e+04
-1.680000e+01 7.673852e+01   4.653422e-01  2.000000e+02  1.619354e+03
-1.440000e+01 7.673852e+01   4.653422e-01  2.000000e+02  3.339563e+03
-1.200000e+01 7.673852e+01   4.504926e-01  2.000000e+02  1.662204e+04
-9.600000e+00 7.673852e+01   4.447559e-01  2.000000e+02  1.201591e+04
-7.200000e+00 7.673852e+01   4.444796e-01  2.000000e+02  4.775281e+03
-4.800000e+00 7.673852e+01   4.444796e-01  2.000000e+02  2.160609e+03
-2.400000e+00 7.673852e+01   4.991879e-01  2.000000e+02  2.019351e+03
0.000000e+00 7.673852e+01   5.123732e-01  2.000000e+02  1.716900e+02
2.400000e+00 7.673852e+01   4.618110e-01  2.000000e+02  4.438656e+03
4.800000e+00 7.673852e+01   4.618110e-01  2.000000e+02  3.676322e+03
7.200000e+00 7.673852e+01   4.463501e-01  2.000000e+02  3.954635e+02
9.600000e+00 7.673852e+01   4.463501e-01  2.000000e+02  2.830113e+03
1.200000e+01 7.673852e+01   4.866474e-01  2.000000e+02  1.800952e+03
1.440000e+01 7.673852e+01   4.824111e-01  2.000000e+02  4.919445e+02
1.680000e+01 7.673852e+01   4.771498e-01  2.000000e+02  1.139133e+02
1.920000e+01 7.673852e+01   4.521382e-01  2.000000e+02  4.285915e+02
2.160000e+01 7.673852e+01   4.442477e-01  2.000000e+02  1.514140e+04
2.400000e+01 7.673852e+01   4.442477e-01  2.000000e+02  1.423543e+03
2.640000e+01 7.673852e+01   4.603021e-01  2.000000e+02  1.349573e+03
2.880000e+01 7.673852e+01   4.603021e-01  2.000000e+02  9.111765e+02
3.120000e+01 7.673852e+01   4.521369e-01  2.000000e+02  1.077898e+04
3.360000e+01 7.673852e+01   4.471398e-01  2.000000e+02  1.464274e+02
3.600000e+01 7.673852e+01   4.471398e-01  2.000000e+02  1.635255e+03
3.840000e+01 7.673852e+01   4.514242e-01  2.000000e+02  3.846971e+02
4.080000e+01 7.673852e+01   4.532415e-01  2.000000e+02  1.966337e+02
4.320000e+01 7.673852e+01   4.532415e-01  2.000000e+02  2.607110e+03
4.560000e+01 7.673852e+01   4.568452e-01  2.000000e+02  7.463952e+03
4.800000e+01 7.673852e+01   4.744677e-01  2.000000e+02  6.758419e+03
5.040000e+01 7.673852e+01   4.484417e-01  2.000000e+02  4.120413e+02
5.280000e+01 7.673852e+01   4.484417e-01  2.000000e+02  1.811095e+03
5.520000e+01 7.673852e+01   4.504509e-01  2.000000e+02  8.751909e+03
5.760000e+01 7.673852e+01   4.504509e-01  2.000000e+02  9.583708e+03
6.000000e+01 7.673852e+01   4.455918e-01  2.000000e+02  4.115866e+03
6.240000e+01 7.673852e+01   4.452804e-01  2.000000e+02  1.638861e+02
6.480000e+01 7.673852e+01   4.452804e-01  2.000000e+02  1.331463e+04
6.720000e+01 7.673852e+01   4.443955e-01  2.000000e+02  1.575877e+02
6.960000e+01 7.673852e+01   4.443955e-01  2.000000e+02  3.011693e+03
7.200000e+01 7.673852e+01   4.592415e-01  2.000000e+02  4.776629e+02
7.440000e+01 7.673852e+01   4.536303e-01  2.000000e+02  2.457636e+02
7.680000e+01 7.673852e+01   4.433206e-01  2.000000e+02  1.278771e+04
7.920000e+01 7.673852e+01   4.433206e-01  2.000000e+02  1.837244e+02
8.160000e+01 7.673852e+01   4.445405e-01  2.000000e+02  1.026452e+02
8.400000e+01 7.673852e+01   4.446961e-01  2.000000e+02  1.524692e+03
8.640000e+01 7.673852e+01   4.626049e-01  2.000000e+02  2.521970e+03
8.880000e+01 7.673852e+01   4.729109e-01  2.070000e+02  1.575149e+04
9.120000e+01 7.673852e+01   4.454090e-01  2.070000e+02  1.717949e+03
9.360000e+01 7.673852e+01   4.454090e-01  2.000000e+02  1.110957e+04
9.600000e+01 7.673852e+01   4.513304e-01  2.000000e+02  4.639855e+02
9.840000e+01 7.673852e+01   4.513304e-01  2.000000e+02  2.233431e+03
1.008000e+02 7.673852e+01   4.456938e-01  2.000000e+02  1.131307e+03
1.032000e+02 7.673852e+01   4.456938e-01  2.000000e+02  2.057319e+03
1.056000e+02 7.673852e+01   4.469956e-01  2.000000e+02  3.911517e+02
1.080000e+02 7.673852e+01   4.469956e-01  2.000000e+02  2.332850e+03
1.104000e+02 7.673852e+01   4.697667e-01  2.000000e+02  5.417336e+03
1.128000e+02 7.673852e+01   4.444299e-01  2.000000e+02  1.419167e+03
1.152000e+02 7.673852e+01   4.444299e-01  2.000000e+02  4.529742e+03
1.176000e+02 7.673852e+01   4.555574e-01  2.000000e+02  8.266851e+03
1.200000e+02 7.673852e+01   4.546537e-01  2.000000e+02  1.975196e+04
1.224000e+02 7.673852e+01   4.495062e-01  2.000000e+02  1.504237e+04