VARIABLES="Lon", "Lat",  "Total Flux [1/(s*m^2)] (s=0)"
ZONE I=21, J=21, DATAPACKING=POINT
-1.800000e+02 9.000000e+01   0.000000e+00
-1.620000e+02 9.000000e+01   0.000000e+00
-1.440000e+02 9.000000e+01   0.000000e+00
-1.260000e+02 9.000000e+01   0.000000e+00
-1.080000e+02 9.000000e+01   0.000000e+00
-9.000000e+01 9.000000e+01   0.000000e+00
-7.200000e+01 9.000000e+01   0.000000e+00
-5.400000e+01 9.000000e+01   0.000000e+00
-3.600000e+01 9.000000e+01   0.000000e+00
-1.800000e+01 9.000000e+01   0.000000e+00
0.000000e+00 9.000000e+01   0.000000e+00
1.800000e+01 9.000000e+01   0.000000e+00
3.600000e+01 9.000000e+01   0.000000e+00
5.400000e+01 9.000000e+01   0.000000e+00
7.200000e+01 9.000000e+01   0.000000e+00
9.000000e+01 9.000000e+01   0.000000e+00
1.080000e+02 9.000000e+01   0.000000e+00
1.260000e+02 9.000000e+01   0.000000e+00
1.440000e+02 9.000000e+01   0.000000e+00
1.620000e+02 9.000000e+01   0.000000e+00
1.800000e+02 9.000000e+01   0.000000e+00
-1.800000e+02 8.100000e+01   0.000000e+00
-1.620000e+02 8.100000e+01   0.000000e+00
-1.440000e+02 8.100000e+01   0.000000e+00
-1.260000e+02 8.100000e+01   0.000000e+00
-1.080000e+02 8.100000e+01   0.000000e+00
-9.000000e+01 8.100000e+01   0.000000e+00
-7.200000e+01 8.100000e+01   0.000000e+00
-5.400000e+01 8.100000e+01   0.000000e+00
-3.600000e+01 8.100000e+01   0.000000e+00
-1.800000e+01 8.100000e+01   0.000000e+00
0.000000e+00 8.100000e+01   0.000000e+00
1.800000e+01 8.100000e+01   0.000000e+00
3.600000e+01 8.100000e+01   0.000000e+00
5.400000e+01 8.100000e+01   0.000000e+00
7.200000e+01 8.100000e+01   0.000000e+00
9.000000e+01 8.100000e+01   0.000000e+00
1.080000e+02 8.100000e+01   0.000000e+00
1.260000e+02 8.100000e+01   0.000000e+00
1.440000e+02 8.100000e+01   0.000000e+00
1.620000e+02 8.100000e+01   0.000000e+00
1.800000e+02 8.100000e+01   0.000000e+00
-1.800000e+02 7.200000e+01   0.000000e+00
-1.620000e+02 7.200000e+01   0.000000e+00
-1.440000e+02 7.200000e+01   0.000000e+00
-1.260000e+02 7.200000e+01   0.000000e+00
-1.080000e+02 7.200000e+01   0.000000e+00
-9.000000e+01 7.200000e+01   0.000000e+00
-7.200000e+01 7.200000e+01   0.000000e+00
-5.400000e+01 7.200000e+01   0.000000e+00
-3.600000e+01 7.200000e+01   0.000000e+00
-1.800000e+01 7.200000e+01   0.000000e+00
0.000000e+00 7.200000e+01   0.000000e+00
1.800000e+01 7.200000e+01   0.000000e+00
3.600000e+01 7.200000e+01   0.000000e+00
5.400000e+01 7.200000e+01   0.000000e+00
7.200000e+01 7.200000e+01   0.000000e+00
9.000000e+01 7.200000e+01   0.000000e+00
1.080000e+02 7.200000e+01   0.000000e+00
1.260000e+02 7.200000e+01   0.000000e+00
1.440000e+02 7.200000e+01   0.000000e+00
1.620000e+02 7.200000e+01   0.000000e+00
1.800000e+02 7.200000e+01   0.000000e+00
-1.800000e+02 6.300000e+01   0.000000e+00
-1.620000e+02 6.300000e+01   0.000000e+00
-1.440000e+02 6.300000e+01   0.000000e+00
-1.260000e+02 6.300000e+01   0.000000e+00
-1.080000e+02 6.300000e+01   0.000000e+00
-9.000000e+01 6.300000e+01   0.000000e+00
-7.200000e+01 6.300000e+01   0.000000e+00
-5.400000e+01 6.300000e+01   0.000000e+00
-3.600000e+01 6.300000e+01   0.000000e+00
-1.800000e+01 6.300000e+01   0.000000e+00
0.000000e+00 6.300000e+01   0.000000e+00
1.800000e+01 6.300000e+01   0.000000e+00
3.600000e+01 6.300000e+01   0.000000e+00
5.400000e+01 6.300000e+01   0.000000e+00
7.200000e+01 6.300000e+01   0.000000e+00
9.000000e+01 6.300000e+01   0.000000e+00
1.080000e+02 6.300000e+01   0.000000e+00
1.260000e+02 6.300000e+01   0.000000e+00
1.440000e+02 6.300000e+01   0.000000e+00
1.620000e+02 6.300000e+01   0.000000e+00
1.800000e+02 6.300000e+01   0.000000e+00
-1.800000e+02 5.400000e+01   0.000000e+00
-1.620000e+02 5.400000e+01   0.000000e+00
-1.440000e+02 5.400000e+01   0.000000e+00
-1.260000e+02 5.400000e+01   0.000000e+00
-1.080000e+02 5.400000e+01   0.000000e+00
-9.000000e+01 5.400000e+01   0.000000e+00
-7.200000e+01 5.400000e+01   0.000000e+00
-5.400000e+01 5.400000e+01   0.000000e+00
-3.600000e+01 5.400000e+01   0.000000e+00
-1.800000e+01 5.400000e+01   0.000000e+00
0.000000e+00 5.400000e+01   0.000000e+00
1.800000e+01 5.400000e+01   0.000000e+00
3.600000e+01 5.400000e+01   0.000000e+00
5.400000e+01 5.400000e+01   0.000000e+00
7.200000e+01 5.400000e+01   0.000000e+00
9.000000e+01 5.400000e+01   0.000000e+00
1.080000e+02 5.400000e+01   0.000000e+00
1.260000e+02 5.400000e+01   0.000000e+00
1.440000e+02 5.400000e+01   0.000000e+00
1.620000e+02 5.400000e+01   0.000000e+00
1.800000e+02 5.400000e+01   0.000000e+00
-1.800000e+02 4.500000e+01   0.000000e+00
-1.620000e+02 4.500000e+01   0.000000e+00
-1.440000e+02 4.500000e+01   0.000000e+00
-1.260000e+02 4.500000e+01   0.000000e+00
-1.080000e+02 4.500000e+01   0.000000e+00
-9.000000e+01 4.500000e+01   0.000000e+00
-7.200000e+01 4.500000e+01   0.000000e+00
-5.400000e+01 4.500000e+01   0.000000e+00
-3.600000e+01 4.500000e+01   0.000000e+00
-1.800000e+01 4.500000e+01   0.000000e+00
0.000000e+00 4.500000e+01   0.000000e+00
1.800000e+01 4.500000e+01   0.000000e+00
3.600000e+01 4.500000e+01   0.000000e+00
5.400000e+01 4.500000e+01   0.000000e+00
7.200000e+01 4.500000e+01   0.000000e+00
9.000000e+01 4.500000e+01   0.000000e+00
1.080000e+02 4.500000e+01   0.000000e+00
1.260000e+02 4.500000e+01   0.000000e+00
1.440000e+02 4.500000e+01   0.000000e+00
1.620000e+02 4.500000e+01   0.000000e+00
1.800000e+02 4.500000e+01   0.000000e+00
-1.800000e+02 3.600000e+01   0.000000e+00
-1.620000e+02 3.600000e+01   0.000000e+00
-1.440000e+02 3.600000e+01   0.000000e+00
-1.260000e+02 3.600000e+01   0.000000e+00
-1.080000e+02 3.600000e+01   0.000000e+00
-9.000000e+01 3.600000e+01   0.000000e+00
-7.200000e+01 3.600000e+01   0.000000e+00
-5.400000e+01 3.600000e+01   0.000000e+00
-3.600000e+01 3.600000e+01   0.000000e+00
-1.800000e+01 3.600000e+01   0.000000e+00
0.000000e+00 3.600000e+01   0.000000e+00
1.800000e+01 3.600000e+01   0.000000e+00
3.600000e+01 3.600000e+01   0.000000e+00
5.400000e+01 3.600000e+01   0.000000e+00
7.200000e+01 3.600000e+01   0.000000e+00
9.000000e+01 3.600000e+01   0.000000e+00
1.080000e+02 3.600000e+01   0.000000e+00
1.260000e+02 3.600000e+01   0.000000e+00
1.440000e+02 3.600000e+01   0.000000e+00
1.620000e+02 3.600000e+01   0.000000e+00
1.800000e+02 3.600000e+01   0.000000e+00
-1.800000e+02 2.700000e+01   0.000000e+00
-1.620000e+02 2.700000e+01   0.000000e+00
-1.440000e+02 2.700000e+01   0.000000e+00
-1.260000e+02 2.700000e+01   0.000000e+00
-1.080000e+02 2.700000e+01   0.000000e+00
-9.000000e+01 2.700000e+01   0.000000e+00
-7.200000e+01 2.700000e+01   0.000000e+00
-5.400000e+01 2.700000e+01   0.000000e+00
-3.600000e+01 2.700000e+01   0.000000e+00
-1.800000e+01 2.700000e+01   0.000000e+00
0.000000e+00 2.700000e+01   0.000000e+00
1.800000e+01 2.700000e+01   0.000000e+00
3.600000e+01 2.700000e+01   0.000000e+00
5.400000e+01 2.700000e+01   0.000000e+00
7.200000e+01 2.700000e+01   0.000000e+00
9.000000e+01 2.700000e+01   0.000000e+00
1.080000e+02 2.700000e+01   0.000000e+00
1.260000e+02 2.700000e+01   0.000000e+00
1.440000e+02 2.700000e+01   0.000000e+00
1.620000e+02 2.700000e+01   0.000000e+00
1.800000e+02 2.700000e+01   0.000000e+00
-1.800000e+02 1.800000e+01   0.000000e+00
-1.620000e+02 1.800000e+01   0.000000e+00
-1.440000e+02 1.800000e+01   0.000000e+00
-1.260000e+02 1.800000e+01   0.000000e+00
-1.080000e+02 1.800000e+01   0.000000e+00
-9.000000e+01 1.800000e+01   0.000000e+00
-7.200000e+01 1.800000e+01   0.000000e+00
-5.400000e+01 1.800000e+01   0.000000e+00
-3.600000e+01 1.800000e+01   0.000000e+00
-1.800000e+01 1.800000e+01   0.000000e+00
0.000000e+00 1.800000e+01   0.000000e+00
1.800000e+01 1.800000e+01   0.000000e+00
3.600000e+01 1.800000e+01   0.000000e+00
5.400000e+01 1.800000e+01   0.000000e+00
7.200000e+01 1.800000e+01   0.000000e+00
9.000000e+01 1.800000e+01   0.000000e+00
1.080000e+02 1.800000e+01   0.000000e+00
1.260000e+02 1.800000e+01   0.000000e+00
1.440000e+02 1.800000e+01   0.000000e+00
1.620000e+02 1.800000e+01   0.000000e+00
1.800000e+02 1.800000e+01   0.000000e+00
-1.800000e+02 9.000000e+00   0.000000e+00
-1.620000e+02 9.000000e+00   0.000000e+00
-1.440000e+02 9.000000e+00   0.000000e+00
-1.260000e+02 9.000000e+00   0.000000e+00
-1.080000e+02 9.000000e+00   0.000000e+00
-9.000000e+01 9.000000e+00   0.000000e+00
-7.200000e+01 9.000000e+00   0.000000e+00
-5.400000e+01 9.000000e+00   0.000000e+00
-3.600000e+01 9.000000e+00   0.000000e+00
-1.800000e+01 9.000000e+00   0.000000e+00
0.000000e+00 9.000000e+00   0.000000e+00
1.800000e+01 9.000000e+00   0.000000e+00
3.600000e+01 9.000000e+00   0.000000e+00
5.400000e+01 9.000000e+00   0.000000e+00
7.200000e+01 9.000000e+00   0.000000e+00
9.000000e+01 9.000000e+00   0.000000e+00
1.080000e+02 9.000000e+00   0.000000e+00
1.260000e+02 9.000000e+00   0.000000e+00
1.440000e+02 9.000000e+00   0.000000e+00
1.620000e+02 9.000000e+00   0.000000e+00
1.800000e+02 9.000000e+00   0.000000e+00
-1.800000e+02 3.508355e-15   0.000000e+00
-1.620000e+02 3.508355e-15   0.000000e+00
-1.440000e+02 3.508355e-15   0.000000e+00
-1.260000e+02 3.508355e-15   0.000000e+00
-1.080000e+02 3.508355e-15   0.000000e+00
-9.000000e+01 3.508355e-15   0.000000e+00
-7.200000e+01 3.508355e-15   0.000000e+00
-5.400000e+01 3.508355e-15   0.000000e+00
-3.600000e+01 3.508355e-15   0.000000e+00
-1.800000e+01 3.508355e-15   0.000000e+00
0.000000e+00 3.508355e-15   0.000000e+00
1.800000e+01 3.508355e-15   0.000000e+00
3.600000e+01 3.508355e-15   0.000000e+00
5.400000e+01 3.508355e-15   0.000000e+00
7.200000e+01 3.508355e-15   0.000000e+00
9.000000e+01 3.508355e-15   0.000000e+00
1.080000e+02 3.508355e-15   0.000000e+00
1.260000e+02 3.508355e-15   0.000000e+00
1.440000e+02 3.508355e-15   0.000000e+00
1.620000e+02 3.508355e-15   0.000000e+00
1.800000e+02 3.508355e-15   0.000000e+00
-1.800000e+02 -9.000000e+00   0.000000e+00
-1.620000e+02 -9.000000e+00   0.000000e+00
-1.440000e+02 -9.000000e+00   0.000000e+00
-1.260000e+02 -9.000000e+00   0.000000e+00
-1.080000e+02 -9.000000e+00   0.000000e+00
-9.000000e+01 -9.000000e+00   0.000000e+00
-7.200000e+01 -9.000000e+00   0.000000e+00
-5.400000e+01 -9.000000e+00   0.000000e+00
-3.600000e+01 -9.000000e+00   0.000000e+00
-1.800000e+01 -9.000000e+00   0.000000e+00
0.000000e+00 -9.000000e+00   0.000000e+00
1.800000e+01 -9.000000e+00   0.000000e+00
3.600000e+01 -9.000000e+00   0.000000e+00
5.400000e+01 -9.000000e+00   0.000000e+00
7.200000e+01 -9.000000e+00   0.000000e+00
9.000000e+01 -9.000000e+00   0.000000e+00
1.080000e+02 -9.000000e+00   0.000000e+00
1.260000e+02 -9.000000e+00   0.000000e+00
1.440000e+02 -9.000000e+00   0.000000e+00
1.620000e+02 -9.000000e+00   0.000000e+00
1.800000e+02 -9.000000e+00   0.000000e+00
-1.800000e+02 -1.800000e+01   0.000000e+00
-1.620000e+02 -1.800000e+01   0.000000e+00
-1.440000e+02 -1.800000e+01   0.000000e+00
-1.260000e+02 -1.800000e+01   0.000000e+00
-1.080000e+02 -1.800000e+01   0.000000e+00
-9.000000e+01 -1.800000e+01   0.000000e+00
-7.200000e+01 -1.800000e+01   0.000000e+00
-5.400000e+01 -1.800000e+01   0.000000e+00
-3.600000e+01 -1.800000e+01   0.000000e+00
-1.800000e+01 -1.800000e+01   0.000000e+00
0.000000e+00 -1.800000e+01   0.000000e+00
1.800000e+01 -1.800000e+01   0.000000e+00
3.600000e+01 -1.800000e+01   0.000000e+00
5.400000e+01 -1.800000e+01   0.000000e+00
7.200000e+01 -1.800000e+01   0.000000e+00
9.000000e+01 -1.800000e+01   0.000000e+00
1.080000e+02 -1.800000e+01   0.000000e+00
1.260000e+02 -1.800000e+01   0.000000e+00
1.440000e+02 -1.800000e+01   0.000000e+00
1.620000e+02 -1.800000e+01   0.000000e+00
1.800000e+02 -1.800000e+01   0.000000e+00
-1.800000e+02 -2.700000e+01   0.000000e+00
-1.620000e+02 -2.700000e+01   0.000000e+00
-1.440000e+02 -2.700000e+01   0.000000e+00
-1.260000e+02 -2.700000e+01   0.000000e+00
-1.080000e+02 -2.700000e+01   0.000000e+00
-9.000000e+01 -2.700000e+01   0.000000e+00
-7.200000e+01 -2.700000e+01   0.000000e+00
-5.400000e+01 -2.700000e+01   0.000000e+00
-3.600000e+01 -2.700000e+01   0.000000e+00
-1.800000e+01 -2.700000e+01   0.000000e+00
0.000000e+00 -2.700000e+01   0.000000e+00
1.800000e+01 -2.700000e+01   0.000000e+00
3.600000e+01 -2.700000e+01   0.000000e+00
5.400000e+01 -2.700000e+01   0.000000e+00
7.200000e+01 -2.700000e+01   0.000000e+00
9.000000e+01 -2.700000e+01   0.000000e+00
1.080000e+02 -2.700000e+01   0.000000e+00
1.260000e+02 -2.700000e+01   0.000000e+00
1.440000e+02 -2.700000e+01   0.000000e+00
1.620000e+02 -2.700000e+01   0.000000e+00
1.800000e+02 -2.700000e+01   0.000000e+00
-1.800000e+02 -3.600000e+01   0.000000e+00
-1.620000e+02 -3.600000e+01   0.000000e+00
-1.440000e+02 -3.600000e+01   0.000000e+00
-1.260000e+02 -3.600000e+01   0.000000e+00
-1.080000e+02 -3.600000e+01   0.000000e+00
-9.000000e+01 -3.600000e+01   0.000000e+00
-7.200000e+01 -3.600000e+01   0.000000e+00
-5.400000e+01 -3.600000e+01   0.000000e+00
-3.600000e+01 -3.600000e+01   0.000000e+00
-1.800000e+01 -3.600000e+01   0.000000e+00
0.000000e+00 -3.600000e+01   0.000000e+00
1.800000e+01 -3.600000e+01   0.000000e+00
3.600000e+01 -3.600000e+01   0.000000e+00
5.400000e+01 -3.600000e+01   0.000000e+00
7.200000e+01 -3.600000e+01   0.000000e+00
9.000000e+01 -3.600000e+01   0.000000e+00
1.080000e+02 -3.600000e+01   0.000000e+00
1.260000e+02 -3.600000e+01   0.000000e+00
1.440000e+02 -3.600000e+01   0.000000e+00
1.620000e+02 -3.600000e+01   0.000000e+00
1.800000e+02 -3.600000e+01   0.000000e+00
-1.800000e+02 -4.500000e+01   0.000000e+00
-1.620000e+02 -4.500000e+01   0.000000e+00
-1.440000e+02 -4.500000e+01   0.000000e+00
-1.260000e+02 -4.500000e+01   0.000000e+00
-1.080000e+02 -4.500000e+01   0.000000e+00
-9.000000e+01 -4.500000e+01   0.000000e+00
-7.200000e+01 -4.500000e+01   0.000000e+00
-5.400000e+01 -4.500000e+01   0.000000e+00
-3.600000e+01 -4.500000e+01   0.000000e+00
-1.800000e+01 -4.500000e+01   0.000000e+00
0.000000e+00 -4.500000e+01   0.000000e+00
1.800000e+01 -4.500000e+01   0.000000e+00
3.600000e+01 -4.500000e+01   0.000000e+00
5.400000e+01 -4.500000e+01   0.000000e+00
7.200000e+01 -4.500000e+01   0.000000e+00
9.000000e+01 -4.500000e+01   0.000000e+00
1.080000e+02 -4.500000e+01   0.000000e+00
1.260000e+02 -4.500000e+01   0.000000e+00
1.440000e+02 -4.500000e+01   0.000000e+00
1.620000e+02 -4.500000e+01   0.000000e+00
1.800000e+02 -4.500000e+01   0.000000e+00
-1.800000e+02 -5.400000e+01   0.000000e+00
-1.620000e+02 -5.400000e+01   0.000000e+00
-1.440000e+02 -5.400000e+01   0.000000e+00
-1.260000e+02 -5.400000e+01   0.000000e+00
-1.080000e+02 -5.400000e+01   0.000000e+00
-9.000000e+01 -5.400000e+01   0.000000e+00
-7.200000e+01 -5.400000e+01   0.000000e+00
-5.400000e+01 -5.400000e+01   0.000000e+00
-3.600000e+01 -5.400000e+01   0.000000e+00
-1.800000e+01 -5.400000e+01   0.000000e+00
0.000000e+00 -5.400000e+01   0.000000e+00
1.800000e+01 -5.400000e+01   0.000000e+00
3.600000e+01 -5.400000e+01   0.000000e+00
5.400000e+01 -5.400000e+01   0.000000e+00
7.200000e+01 -5.400000e+01   0.000000e+00
9.000000e+01 -5.400000e+01   0.000000e+00
1.080000e+02 -5.400000e+01   0.000000e+00
1.260000e+02 -5.400000e+01   0.000000e+00
1.440000e+02 -5.400000e+01   0.000000e+00
1.620000e+02 -5.400000e+01   0.000000e+00
1.800000e+02 -5.400000e+01   0.000000e+00
-1.800000e+02 -6.300000e+01   0.000000e+00
-1.620000e+02 -6.300000e+01   0.000000e+00
-1.440000e+02 -6.300000e+01   0.000000e+00
-1.260000e+02 -6.300000e+01   0.000000e+00
-1.080000e+02 -6.300000e+01   0.000000e+00
-9.000000e+01 -6.300000e+01   0.000000e+00
-7.200000e+01 -6.300000e+01   0.000000e+00
-5.400000e+01 -6.300000e+01   0.000000e+00
-3.600000e+01 -6.300000e+01   0.000000e+00
-1.800000e+01 -6.300000e+01   0.000000e+00
0.000000e+00 -6.300000e+01   0.000000e+00
1.800000e+01 -6.300000e+01   0.000000e+00
3.600000e+01 -6.300000e+01   0.000000e+00
5.400000e+01 -6.300000e+01   0.000000e+00
7.200000e+01 -6.300000e+01   0.000000e+00
9.000000e+01 -6.300000e+01   0.000000e+00
1.080000e+02 -6.300000e+01   0.000000e+00
1.260000e+02 -6.300000e+01   0.000000e+00
1.440000e+02 -6.300000e+01   0.000000e+00
1.620000e+02 -6.300000e+01   0.000000e+00
1.800000e+02 -6.300000e+01   0.000000e+00
-1.800000e+02 -7.200000e+01   0.000000e+00
-1.620000e+02 -7.200000e+01   0.000000e+00
-1.440000e+02 -7.200000e+01   0.000000e+00
-1.260000e+02 -7.200000e+01   0.000000e+00
-1.080000e+02 -7.200000e+01   0.000000e+00
-9.000000e+01 -7.200000e+01   0.000000e+00
-7.200000e+01 -7.200000e+01   0.000000e+00
-5.400000e+01 -7.200000e+01   0.000000e+00
-3.600000e+01 -7.200000e+01   0.000000e+00
-1.800000e+01 -7.200000e+01   0.000000e+00
0.000000e+00 -7.200000e+01   0.000000e+00
1.800000e+01 -7.200000e+01   0.000000e+00
3.600000e+01 -7.200000e+01   0.000000e+00
5.400000e+01 -7.200000e+01   0.000000e+00
7.200000e+01 -7.200000e+01   0.000000e+00
9.000000e+01 -7.200000e+01   0.000000e+00
1.080000e+02 -7.200000e+01   0.000000e+00
1.260000e+02 -7.200000e+01   0.000000e+00
1.440000e+02 -7.200000e+01   0.000000e+00
1.620000e+02 -7.200000e+01   0.000000e+00
1.800000e+02 -7.200000e+01   0.000000e+00
-1.800000e+02 -8.100000e+01   0.000000e+00
-1.620000e+02 -8.100000e+01   0.000000e+00
-1.440000e+02 -8.100000e+01   0.000000e+00
-1.260000e+02 -8.100000e+01   0.000000e+00
-1.080000e+02 -8.100000e+01   0.000000e+00
-9.000000e+01 -8.100000e+01   0.000000e+00
-7.200000e+01 -8.100000e+01   0.000000e+00
-5.400000e+01 -8.100000e+01   0.000000e+00
-3.600000e+01 -8.100000e+01   0.000000e+00
-1.800000e+01 -8.100000e+01   0.000000e+00
0.000000e+00 -8.100000e+01   0.000000e+00
1.800000e+01 -8.100000e+01   0.000000e+00
3.600000e+01 -8.100000e+01   0.000000e+00
5.400000e+01 -8.100000e+01   0.000000e+00
7.200000e+01 -8.100000e+01   0.000000e+00
9.000000e+01 -8.100000e+01   0.000000e+00
1.080000e+02 -8.100000e+01   0.000000e+00
1.260000e+02 -8.100000e+01   0.000000e+00
1.440000e+02 -8.100000e+01   0.000000e+00
1.620000e+02 -8.100000e+01   0.000000e+00
1.800000e+02 -8.100000e+01   0.000000e+00
-1.800000e+02 -9.000000e+01   0.000000e+00
-1.620000e+02 -9.000000e+01   0.000000e+00
-1.440000e+02 -9.000000e+01   0.000000e+00
-1.260000e+02 -9.000000e+01   0.000000e+00
-1.080000e+02 -9.000000e+01   0.000000e+00
-9.000000e+01 -9.000000e+01   0.000000e+00
-7.200000e+01 -9.000000e+01   0.000000e+00
-5.400000e+01 -9.000000e+01   0.000000e+00
-3.600000e+01 -9.000000e+01   0.000000e+00
-1.800000e+01 -9.000000e+01   0.000000e+00
0.000000e+00 -9.000000e+01   0.000000e+00
1.800000e+01 -9.000000e+01   0.000000e+00
3.600000e+01 -9.000000e+01   0.000000e+00
5.400000e+01 -9.000000e+01   0.000000e+00
7.200000e+01 -9.000000e+01   0.000000e+00
9.000000e+01 -9.000000e+01   0.000000e+00
1.080000e+02 -9.000000e+01   0.000000e+00
1.260000e+02 -9.000000e+01   0.000000e+00
1.440000e+02 -9.000000e+01   0.000000e+00
1.620000e+02 -9.000000e+01   0.000000e+00
1.800000e+02 -9.000000e+01   0.000000e+00
